ITEM: TIMESTEP
0
ITEM: NUMBER OF ATOMS
2
ITEM: BOX BOUNDS pp pp pp
0.0	3.426818e+00
0.0	3.426818e+00
0.0	3.426818e+00
ITEM: ATOMS id type x y z
1  2  0.0  0.0  0.0
2  2  1.713409  1.713409  1.713409
