ITEM: TIMESTEP
0
ITEM: NUMBER OF ATOMS
60
ITEM: BOX BOUNDS xy xz yz pp pp pp
-3.7899361250000001e+00 7.5798722500000002e+00 -3.7899361250000001e+00
0.0000000000000000e+00 6.5643619259407098e+00 0.0000000000000000e+00
0.0000000000000000e+00 1.8002744000000000e+01 0.0000000000000000e+00
ITEM: ATOMS id type q x y z 
60 2 0.291023 6.73701 0.729944 12.0018 
1 2 0.285185 -0.842862 5.10447 6.00091 
2 2 0.290166 1.68573 0.729944 0 
3 2 0.302699 4.21983 2.90988 12.0018 
4 2 0.286454 4.21983 0.744596 6.00091 
5 2 0.303165 -0.859782 2.90988 0 
6 2 0.328128 1.70289 2.93374 3.57336 
7 2 0.279219 4.19228 5.10537 15.5752 
8 2 0.272258 1.6847 5.08962 9.57428 
9 2 0.349049 1.70289 5.10537 14.4294 
10 2 0.353018 4.19228 5.08962 2.42755 
11 2 0.323073 1.6847 2.93374 8.42846 
12 2 0.329929 1.84559 3.06405 0.80267 
13 2 0.288097 4.04181 5.09864 12.8045 
14 2 0.286523 1.69247 4.96603 6.80358 
15 2 0.336811 1.84559 5.09864 17.2001 
16 2 0.347376 4.04181 4.96603 5.19824 
17 2 0.317702 1.69247 3.06405 11.1992 
18 2 0.359938 6.75953 0.747779 9.29754 
19 2 0.281823 -0.863462 5.10614 3.29662 
20 2 0.362773 1.68381 0.710441 15.2984 
21 2 0.354364 -0.820342 5.10614 8.70521 
22 2 0.287205 6.71641 0.710441 14.7061 
23 2 0.281175 1.68381 0.747779 2.70429 
24 2 0.347692 6.91882 0.884101 6.72464 
25 2 0.289219 -1.02087 5.10778 0.723722 
26 2 0.345423 1.68192 0.572485 12.7256 
27 2 0.335273 -0.661052 5.10778 11.2781 
28 2 0.300682 6.559 0.572485 17.279 
29 2 0.289783 1.68192 0.884101 5.27719 
30 2 0.341822 -0.817162 2.93464 15.2939 
31 2 0.333857 4.19124 2.92204 9.29294 
32 2 0.361794 4.20579 0.707684 3.29202 
33 2 0.336942 -0.817162 2.92204 2.70889 
34 2 0.281102 4.19124 0.707684 8.70981 
35 2 0.338519 4.20579 2.93464 14.7107 
36 2 0.333459 -0.649962 3.07787 12.719 
37 2 0.317733 4.02585 2.92361 6.7181 
38 2 0.345 4.20398 0.562881 0.717181 
39 2 0.318086 -0.649962 2.92361 5.28373 
40 2 0.298301 4.02585 0.562881 11.2846 
41 2 0.321586 4.20398 3.07787 17.2856 
42 1 -0.810007 1.58405 2.79663 16.1869 
43 1 -0.707232 4.3506 5.13956 10.186 
44 1 -0.738022 1.64522 5.19254 4.1851 
45 1 -0.709955 1.58405 5.13956 1.81581 
46 1 -0.654265 4.3506 5.19254 7.81673 
47 1 -0.803338 1.64522 2.79663 13.8176 
48 1 -0.643259 6.66572 0.671199 4.1748 
49 1 -0.721846 -0.775032 5.10149 16.1766 
50 1 -0.68706 1.68918 0.791675 10.1757 
51 1 -0.711679 -0.914152 5.10149 13.8279 
52 1 -0.739526 6.80484 0.791675 1.82611 
53 1 -0.728317 1.68918 0.671199 7.82703 
54 1 -0.811359 -0.976392 2.83189 10.1777 
55 1 -0.812621 4.30989 2.88689 4.17674 
56 1 -0.686211 4.24638 0.845582 16.1786 
57 1 -0.815082 -0.976392 2.88689 7.82509 
58 1 -0.749517 4.30989 0.845582 13.826 
59 1 -0.804128 4.24638 2.83189 1.82418 
