ITEM: TIMESTEP
0
ITEM: NUMBER OF ATOMS
224
ITEM: BOX BOUNDS pp pp pp
0.0	1.539524e+01
0.0	1.539524e+01
0.0	1.539524e+01
ITEM: ATOMS type x y z
1  1.687278e+00  1.563225e+00  1.197734e+00
1  9.210583e+00  5.271737e+00  6.962570e+00
1  1.110362e+01  1.310224e+01  1.181563e+01
1  5.952055e+00  1.284851e+01  6.204810e+00
1  1.394066e+01  7.567786e+00  1.186623e+01
1  1.332121e+01  9.647400e+00  3.860479e+00
1  1.139130e+01  7.191347e+00  3.549579e+00
1  9.478902e-01  1.347969e+01  8.686038e+00
1  3.815334e+00  1.349135e+01  5.102600e+00
1  9.154044e+00  1.494617e+01  6.642657e-01
1  6.640224e+00  1.146979e+01  1.312785e+01
1  8.592965e+00  6.150713e-01  8.095006e+00
1  1.114132e+01  2.234411e+00  3.929533e+00
1  5.311446e+00  4.148464e+00  7.726186e+00
1  1.337604e+01  1.045202e+01  6.278497e+00
1  3.080093e+00  1.664392e+00  1.062349e+01
1  9.531881e+00  7.071811e+00  1.187462e+01
1  3.376318e+00  1.022012e+01  1.174589e+00
1  1.051219e+01  1.334821e+01  4.620983e+00
1  9.652076e+00  1.156079e+01  8.498303e+00
1  1.442299e+01  1.057467e+01  1.509139e+01
1  6.966470e+00  1.401688e+00  3.973216e+00
1  1.104645e+01  9.445000e-01  8.678535e+00
1  5.677685e+00  1.283412e+01  9.044646e+00
1  1.269394e+00  6.006253e+00  1.506686e+01
1  5.738813e+00  7.680848e+00  3.702269e-01
1  5.852324e+00  8.803825e+00  4.263174e+00
1  1.251594e+01  1.478970e+01  7.470399e+00
1  9.075403e-01  1.345277e+01  2.347373e+00
1  1.350108e+01  8.378454e+00  7.535161e+00
1  1.502004e+01  1.340876e+01  4.319092e+00
1  3.078648e+00  1.372321e+01  1.259914e+01
1  5.752289e+00  9.584117e+00  1.917974e+00
1  4.597560e+00  1.723229e+00  8.481289e+00
1  5.254725e+00  1.401290e+01  1.129551e+00
1  7.969044e+00  4.071805e+00  5.386504e-01
1  7.617351e+00  6.400681e+00  1.375635e+00
1  1.258600e+01  5.167792e+00  1.711432e-01
1  7.647200e-01  1.368259e+01  1.319263e+01
1  1.517678e+01  2.772391e+00  1.241297e+01
1  2.416950e+00  9.648854e+00  6.863499e+00
1  1.511500e+01  1.168583e+01  9.881021e+00
1  2.781181e+00  5.866113e+00  5.117991e+00
1  1.357154e+01  1.959360e+00  4.123892e+00
1  1.454138e+01  1.538618e+01  8.974993e+00
1  9.271381e+00  1.146998e+01  3.564102e+00
1  9.184207e+00  9.629342e+00  7.234788e+00
1  4.149283e+00  5.089086e+00  3.080972e+00
1  2.951948e+00  9.240370e+00  1.225631e+01
1  1.997531e+00  9.376995e+00  2.913305e+00
1  1.070151e+01  2.888628e+00  1.233630e+01
1  3.427353e+00  8.416151e+00  4.782511e+00
1  5.516183e+00  5.236754e+00  1.200858e+01
1  1.093425e+01  1.077848e+01  1.051226e+01
1  1.513435e+00  5.477574e+00  9.039879e+00
1  6.290046e+00  6.171197e+00  3.745013e+00
1  7.166364e+00  5.131325e-01  1.241110e+01
1  1.317750e+01  4.356216e+00  8.242873e+00
1  3.592386e+00  2.090888e+00  1.507184e+01
1  1.292622e+01  1.538645e+01  1.527876e+01
1  1.798369e+00  1.717301e+00  5.962934e+00
1  1.014095e+01  9.944128e+00  1.522006e+01
1  5.531794e+00  8.476264e+00  8.557130e+00
1  2.852284e-01  5.544755e+00  4.158690e+00
2  6.284567e-01  7.608709e+00  6.020687e+00
2  1.039855e+01  5.642190e+00  1.112652e+00
2  7.410633e+00  7.012537e+00  1.324920e+01
2  1.078898e+01  9.619635e+00  3.705220e+00
2  1.103722e+01  8.486463e+00  6.058739e+00
2  1.093972e+01  1.126967e+01  6.234862e+00
2  1.485019e+01  8.034890e-02  1.168823e+01
2  5.098366e+00  6.833309e+00  6.541802e+00
2  4.325711e+00  9.469686e-01  5.562167e+00
2  5.294717e+00  1.369029e+01  1.420086e+01
2  1.568358e+00  1.140606e+01  1.213729e+01
2  7.948197e+00  1.404504e+01  1.399434e+01
2  1.519224e+01  7.934397e+00  3.553869e+00
2  1.446459e+01  1.170897e+01  1.253795e+01
2  7.097914e+00  4.758132e+00  5.841829e+00
2  2.560616e-01  8.343852e+00  9.032259e-01
2  1.381184e+01  1.522008e+01  2.272934e+00
2  1.158692e+01  6.616846e+00  1.322066e+01
2  9.220230e+00  5.069599e+00  1.347061e+01
2  1.495668e+01  4.349714e+00  1.496951e+01
2  4.623153e+00  4.156624e-01  1.288722e+01
2  1.537300e+01  9.625381e+00  1.182637e+01
2  1.264168e+01  1.511356e+01  4.558172e+00
2  1.654792e+00  1.009949e+01  1.456475e+01
2  8.296329e+00  9.334129e+00  4.899055e+00
2  8.936932e+00  2.893731e+00  5.840378e+00
2  1.509813e+01  1.231019e+01  6.856812e+00
2  1.534543e+01  7.766511e+00  9.548383e+00
2  1.121450e+01  4.496689e-01  1.105772e+01
2  6.779723e+00  1.057660e+00  9.751735e+00
2  1.281557e+01  1.289786e+01  6.062515e+00
2  1.518418e+01  1.702588e+00  1.473459e+01
2  1.159004e+01  6.242432e+00  7.257556e+00
2  3.093101e+00  7.681979e+00  8.657120e+00
2  6.318160e+00  1.511396e+01  7.528520e+00
2  1.081609e+01  3.483346e+00  8.416098e+00
2  3.186958e+00  8.153281e+00  1.467198e+01
2  2.072027e+00  1.184564e+01  3.717543e+00
2  1.372212e+01  1.277119e+01  8.737719e-01
2  6.798067e+00  1.189691e+01  5.503101e-01
2  5.667677e-01  1.068862e+01  5.222360e+00
2  6.837910e+00  3.214482e+00  1.312320e+01
2  1.109324e+01  1.354743e+01  9.455039e+00
2  1.248004e+01  2.125646e+00  6.710768e+00
2  5.313241e+00  3.064744e+00  4.578831e+00
2  1.276207e+01  6.525825e+00  9.661215e+00
2  7.784910e+00  1.357984e+01  2.143533e+00
2  1.463999e+01  2.870484e+00  1.813877e+00
2  3.965207e-01  2.990718e+00  4.324725e+00
2  1.957186e+00  7.826078e-01  8.184502e+00
2  3.774240e+00  2.909688e+00  1.256341e+01
2  7.412687e+00  9.308310e+00  1.180129e+01
2  3.093721e+00  5.555139e+00  1.324460e+01
2  3.128191e+00  1.248254e+01  1.007996e+01
2  1.016090e+01  6.212479e+00  9.374566e+00
2  1.467924e+01  5.023737e-01  6.220987e+00
2  6.687768e-01  1.231976e+01  1.538552e+01
2  3.686117e+00  5.959716e+00  7.988077e-01
2  1.066098e+00  4.350414e+00  6.545647e+00
2  3.690124e+00  1.421597e+01  7.832250e+00
2  2.352278e+00  3.136332e+00  8.704433e+00
2  1.308092e+01  4.133411e+00  1.320343e+01
2  4.396447e-01  1.908079e+00  1.029689e+01
2  1.482160e+01  4.594224e+00  1.019935e+01
2  4.273785e+00  1.477756e+01  1.057393e+01
2  4.267955e+00  7.840215e+00  2.689213e+00
2  1.280469e+01  1.204225e+01  8.588210e+00
2  7.654943e+00  7.347208e+00  7.083251e+00
2  1.104847e+01  8.640048e+00  8.727524e+00
2  1.830783e-01  1.484564e+01  4.043297e-01
2  9.205061e+00  7.975001e+00  2.146223e+00
2  1.168023e+01  8.329925e+00  1.104464e+01
2  5.098601e+00  3.518989e+00  1.156824e+00
2  1.240258e+01  9.167255e+00  1.383767e+01
2  8.984908e+00  1.439976e+01  1.161434e+01
2  9.365409e+00  9.991640e-03  3.275293e+00
2  1.359901e+01  6.649994e+00  5.276690e+00
2  8.916259e+00  1.863840e+00  1.076062e+01
2  8.184976e+00  1.385532e+01  9.300312e+00
2  6.532559e+00  5.844918e+00  9.531376e+00
2  7.514248e+00  9.480333e+00  1.459978e+01
2  1.752696e+00  1.479929e+01  1.064239e+01
2  1.271669e+01  1.402873e+00  1.296034e+01
2  2.219335e+00  7.015577e+00  1.113097e+01
2  1.193547e+01  7.758928e+00  9.627738e-01
2  1.514870e+01  1.083379e+01  2.237140e+00
2  2.280751e+00  1.211938e+01  6.785146e+00
2  4.088834e+00  5.323750e+00  1.004875e+01
2  1.272848e+01  2.713738e+00  3.205095e-01
2  9.654623e+00  6.402535e-01  1.348147e+01
2  1.332071e+01  1.354405e+01  1.073629e+01
2  5.071294e+00  1.041910e+01  1.083991e+01
2  9.933046e+00  1.233606e+01  9.754779e-01
2  7.734103e+00  1.718462e+00  1.423160e+00
2  2.824847e+00  2.617563e+00  3.641241e+00
2  3.889333e+00  1.151363e+01  1.381559e+01
2  1.643306e+00  1.440194e+01  6.020858e+00
2  9.908681e+00  9.592734e+00  1.267896e+01
2  1.609321e+00  4.387998e+00  1.759324e+00
2  1.045886e+01  5.823795e-01  5.799499e+00
2  9.524823e+00  1.352313e+01  7.103031e+00
2  1.331166e+01  2.177892e+00  1.021656e+01
2  1.393614e+01  4.074957e+00  5.578016e+00
2  6.631742e+00  1.343801e+01  1.154211e+01
2  1.318625e+01  1.378393e+01  1.339245e+01
2  9.518862e+00  7.448090e+00  1.468988e+01
2  4.299430e+00  1.079382e+01  7.953676e+00
2  3.009794e+00  1.499632e+01  2.762818e+00
2  1.664682e+00  3.452119e+00  1.410286e+01
2  1.127577e+01  4.878819e+00  5.027522e+00
2  4.527341e+00  1.196533e+01  2.774606e+00
2  6.628212e+00  2.048849e+00  6.570244e+00
2  1.515178e+01  2.424685e+00  7.852643e+00
2  8.651803e+00  4.642482e+00  1.096264e+01
2  4.223794e+00  1.080878e+01  5.256813e+00
2  9.956770e-02  9.750754e+00  7.882223e+00
2  7.059500e-01  5.479285e-01  3.553948e+00
2  8.613008e+00  1.168413e+01  1.114795e+01
2  1.246014e+01  4.533824e+00  2.566900e+00
2  4.689600e+00  7.657819e+00  1.099089e+01
2  1.842260e+00  4.004960e+00  1.135820e+01
2  7.233992e+00  1.074512e+01  9.136069e+00
2  5.204031e+00  1.001804e+00  1.909491e+00
2  2.213796e+00  1.006400e+01  9.774524e+00
2  5.319760e+00  9.003650e+00  1.333449e+01
2  8.242406e+00  1.013456e+01  1.616136e+00
2  1.479976e+01  6.101875e+00  7.723711e+00
2  5.408787e+00  3.173049e+00  1.053916e+01
2  8.344344e+00  8.204767e+00  9.382139e+00
2  9.222795e+00  1.188696e+01  1.370435e+01
2  1.404919e+01  6.918472e+00  1.440461e+01
2  7.888510e+00  1.464217e+01  5.332294e+00
2  8.957556e+00  6.810639e+00  4.804206e+00
2  1.020975e+01  2.836313e+00  1.487558e+01
2  1.460446e+01  6.044412e+00  1.727499e+00
2  1.348892e+01  9.715197e+00  9.737370e+00
2  6.761022e+00  1.149190e+01  3.577314e+00
2  8.256799e+00  1.184277e+01  5.815437e+00
2  3.573716e+00  3.238345e+00  6.211830e+00
2  6.497647e+00  1.001622e+01  6.728952e+00
2  9.902629e+00  3.312854e+00  2.119171e+00
2  7.892115e+00  3.358361e+00  8.586189e+00
2  1.534588e+01  5.473665e+00  1.256166e+01
2  2.960104e+00  1.270488e+01  1.110747e+00
2  7.662579e+00  3.808264e+00  3.429194e+00
2  1.234855e+01  1.030795e+01  1.313996e+00
2  1.289044e+01  1.246803e+01  3.381277e+00
2  3.253958e+00  5.393988e+00  7.495246e+00
2  1.067191e+01  1.379522e+01  1.440219e+01
2  1.068495e+00  7.701753e+00  1.326262e+01
2  1.926409e+00  6.900576e+00  2.417495e+00
2  1.807481e+00  9.631271e-01  1.292521e+01
2  1.211282e+01  4.381407e+00  1.085410e+01
2  6.352259e+00  6.604283e-01  1.502238e+01
2  5.799636e+00  1.425391e+01  3.609576e+00
2  2.970886e+00  1.495625e+01  1.520478e+01
2  1.220925e+01  1.163870e+01  1.407013e+01
2  5.843768e+00  5.148328e+00  1.461016e+01
2  1.136522e+01  1.404691e+01  2.025855e+00
2  1.102085e+01  1.157778e+00  1.432089e+00
