ITEM: TIMESTEP
0
ITEM: NUMBER OF ATOMS
304
ITEM: BOX BOUNDS pp pp pp
0.0	1.712649e+01
0.0	1.712649e+01
0.0	1.712649e+01
ITEM: ATOMS type x y z
1  1.263588e+00  1.470220e+00  7.550402e-01
1  1.103563e+01  4.373877e+00  5.262354e+00
1  1.104418e+01  1.647281e+01  1.355531e+01
1  4.227494e+00  1.440417e+01  7.181356e+00
1  1.602460e+01  1.010879e+01  1.435858e+01
1  1.440469e+01  7.279768e+00  6.101988e+00
1  1.267626e+01  1.151957e+01  4.421950e+00
1  2.668528e+00  1.277836e+01  1.152436e+01
1  6.350405e+00  1.258604e+01  3.272030e+00
1  9.474772e+00  2.185838e+00  8.764507e-01
1  7.213369e+00  1.154980e+01  1.375964e+01
1  1.077786e+01  1.695363e+01  8.449148e+00
1  1.432792e+01  1.834238e+00  6.008762e+00
1  5.801170e+00  5.649566e+00  8.511924e+00
1  2.534466e-01  1.206917e+01  6.784501e+00
1  2.863073e+00  5.041397e+00  1.256118e+01
1  1.017832e+01  8.163758e+00  9.173847e+00
1  3.226794e+00  1.180155e+01  1.701244e+01
1  1.506075e+01  1.601197e+01  3.300405e+00
1  1.063243e+01  1.241981e+01  1.080905e+01
1  1.622009e+01  1.118695e+01  2.388997e+00
1  6.952964e+00  1.359352e+00  6.775653e+00
1  1.014793e+01  3.756044e+00  1.032656e+01
1  6.710576e+00  1.521790e+01  1.102311e+01
1  1.483574e+00  7.316386e+00  1.488301e-01
1  6.066444e+00  8.693573e+00  9.342880e-01
1  8.854329e+00  8.699429e+00  5.017620e+00
1  1.334934e+01  1.397892e+01  7.582606e+00
1  1.705837e+01  1.436558e+01  1.625987e+01
1  1.428929e+01  1.025942e+01  9.466093e+00
1  2.043221e+00  1.453244e+01  3.150217e+00
1  4.476116e+00  1.623973e+01  1.503356e+01
1  9.938104e+00  1.159088e+01  1.035391e+00
1  3.945528e+00  1.410904e+00  9.996472e+00
1  8.309058e+00  1.524965e+01  1.663495e+01
1  1.363111e+01  7.880521e+00  8.922715e-01
1  9.696077e+00  6.415167e+00  7.109351e-01
1  1.403100e+01  3.661971e+00  2.012704e+00
1  8.347205e-01  2.753362e-01  1.330302e+01
1  1.598114e+01  4.770739e+00  1.474967e+01
1  4.401034e+00  9.870062e+00  6.534131e+00
1  1.491066e+01  1.409102e+01  1.195729e+01
1  8.675460e-01  4.150815e+00  8.276224e+00
1  1.349810e-01  1.620171e+01  8.644900e+00
1  1.409829e+01  1.879152e+00  1.091531e+01
1  1.063766e+01  1.621206e+01  3.659302e+00
1  8.720186e+00  1.325005e+01  7.079696e+00
1  5.823268e+00  4.530203e-01  2.416759e+00
1  3.615399e+00  8.918681e+00  1.365857e+01
1  3.194818e+00  9.501880e+00  3.675015e+00
1  1.144015e+01  4.610958e+00  1.438840e+01
1  2.698333e+00  8.194368e+00  5.753295e+00
1  7.733414e+00  6.810857e+00  1.340429e+01
1  1.164369e+01  9.351224e+00  1.387910e+01
1  1.275943e+00  8.352697e+00  9.857531e+00
1  5.875038e+00  5.074337e+00  4.057380e+00
1  7.076884e+00  2.215145e+00  1.345287e+01
1  1.433672e+01  6.262414e+00  1.112777e+01
1  4.873651e+00  3.627352e+00  1.684841e+01
1  1.439208e+01  7.570158e-01  1.577879e+01
1  1.963242e+00  1.760931e+00  5.198908e+00
1  1.266718e+01  1.329083e+01  1.584308e+01
1  6.368085e+00  1.018050e+01  9.960852e+00
1  4.238137e-01  5.263400e+00  3.119039e+00
2  1.601950e+01  5.150500e+00  9.732837e+00
2  1.318815e+01  8.065684e+00  3.828336e+00
2  1.364452e+01  8.392874e+00  1.540210e+01
2  1.487147e+01  1.283038e+01  2.508583e-01
2  7.661683e+00  6.903771e+00  2.033088e+00
2  1.387249e+01  1.510386e+01  5.228938e+00
2  1.287829e+01  4.220757e+00  1.704187e+01
2  4.417719e+00  6.014780e+00  6.166780e+00
2  1.597441e+00  4.372787e-02  3.028573e+00
2  6.508918e+00  1.419905e+01  1.475707e+01
2  1.970062e+00  2.999220e+00  1.070059e+01
2  8.273286e+00  2.829594e+00  1.555542e+01
2  1.558852e+01  8.058706e+00  9.650734e+00
2  1.314094e+01  1.540547e+01  1.377660e+01
2  7.827363e+00  6.272561e+00  4.693361e+00
2  1.381405e+01  1.022454e+01  2.207767e+00
2  1.400823e+00  1.590111e+01  7.548306e-01
2  1.587405e+01  7.271192e+00  1.445522e+01
2  1.183651e+01  6.418212e+00  1.619289e+01
2  1.586374e+01  4.664997e-01  1.030521e+00
2  6.300402e+00  1.705117e+01  9.194485e+00
2  1.706633e+01  7.609349e+00  5.092364e+00
2  1.602692e+01  1.246027e+00  3.824889e+00
2  1.547473e+01  1.280731e+01  1.451627e+01
2  1.270121e+01  8.589042e+00  7.694738e+00
2  6.540562e+00  4.369126e+00  6.443470e+00
2  1.322923e+01  1.109761e+01  7.044396e+00
2  1.281305e+01  8.046674e+00  1.027121e+01
2  1.173085e+01  4.199528e-01  1.143802e+01
2  7.891364e+00  4.402242e+00  8.964069e+00
2  2.957478e-01  1.539511e+01  4.832479e+00
2  1.321987e+01  1.162725e+00  1.339528e+01
2  1.388167e+01  6.437068e+00  8.581770e+00
2  1.379065e+00  4.409515e+00  5.594510e+00
2  3.888407e+00  1.680030e+01  8.014825e+00
2  1.312585e+01  1.674718e+01  7.258771e+00
2  6.441168e+00  7.189593e+00  1.580795e+01
2  2.484562e+00  1.167896e+01  3.747269e+00
2  1.696081e+01  1.469825e+01  1.350743e+01
2  7.261419e+00  9.834232e+00  1.595803e+01
2  1.599242e+00  9.780557e+00  7.557201e+00
2  7.864517e+00  6.813796e+00  9.102283e+00
2  8.594620e+00  1.641869e+01  1.277024e+01
2  1.128284e+01  1.526396e+01  6.382054e+00
2  3.701112e+00  3.517584e+00  4.773131e+00
2  1.356754e+01  5.844889e+00  1.386461e+01
2  6.293225e+00  1.522526e+01  3.552415e+00
2  2.025009e+00  3.286778e+00  2.779046e+00
2  1.722794e-01  1.696464e+00  8.791514e+00
2  1.662508e+01  1.996503e+00  1.127821e+01
2  4.139811e+00  1.614999e+01  1.060123e+01
2  6.151923e+00  1.397139e+01  8.694668e-01
2  8.825087e+00  9.137229e+00  1.359979e+01
2  2.241154e+00  1.445597e+01  9.387968e+00
2  1.174064e+01  5.520498e+00  1.180311e+01
2  1.608960e+01  1.435422e+01  6.912221e+00
2  8.427686e-01  1.267704e+01  1.357301e+00
2  5.322997e+00  7.697099e+00  3.526861e+00
2  2.464790e-01  4.441459e+00  1.213780e+01
2  2.784925e+00  1.203013e+01  6.421532e+00
2  2.535895e+00  1.935715e+00  7.655946e+00
2  1.350826e+01  5.429392e+00  3.958492e+00
2  3.425500e+00  5.038939e-01  1.276483e+01
2  1.848713e+00  5.691554e+00  1.004159e+01
2  6.458820e+00  1.909282e+00  1.087989e+01
2  8.732091e+00  1.512970e+01  2.197044e+00
2  1.269828e+01  1.050077e+01  1.155045e+01
2  1.480959e+01  1.280193e+01  5.638049e+00
2  1.132458e+01  1.070005e+01  8.890455e+00
2  3.651529e+00  1.503065e+00  8.220633e-01
2  7.077107e+00  9.867018e+00  3.241483e+00
2  1.358194e+01  1.097950e+01  1.419427e+01
2  5.126478e+00  1.422227e+00  1.558003e+01
2  3.551807e+00  7.131783e+00  1.560130e+01
2  8.752866e+00  1.660409e+01  1.022811e+01
2  4.411547e+00  1.189875e+00  6.078966e+00
2  1.154659e+01  1.849714e+00  6.220383e+00
2  9.136315e+00  4.030745e+00  1.321415e+01
2  8.892272e+00  1.406290e+01  9.832392e+00
2  6.291795e-01  6.855898e+00  7.717036e+00
2  8.565911e+00  1.244163e+01  1.612171e+01
2  1.060877e+00  5.896430e+00  1.475715e+01
2  1.095173e+01  2.030694e+00  1.450170e+01
2  2.395883e+00  1.018297e+01  1.133577e+01
2  1.347936e+01  1.057789e+01  1.675181e+01
2  1.339368e+01  1.498028e+01  1.194410e+00
2  1.724765e+00  1.190016e+01  8.959651e+00
2  6.618496e+00  5.662509e+00  1.128413e+01
2  1.666299e+01  3.018120e+00  2.025983e+00
2  1.064687e+01  6.929054e+00  1.379821e+01
2  1.699524e+01  1.707737e+01  1.587113e+01
2  1.675995e+01  7.075462e+00  1.165360e+01
2  8.593876e+00  1.482717e+01  4.954451e+00
2  7.340657e+00  1.707055e+01  1.505774e+01
2  8.255778e-02  5.154687e+00  3.351623e-01
2  5.651546e+00  1.191931e+01  1.598785e+01
2  1.744778e+00  1.442074e+01  6.880539e+00
2  1.466716e+01  3.958009e+00  1.252564e+01
2  4.707802e+00  3.476743e+00  2.462980e+00
2  9.586533e+00  5.552804e-01  5.924649e+00
2  1.174711e+01  1.396256e+01  4.102933e+00
2  1.255186e+01  1.562591e+01  9.572909e+00
2  1.486035e+01  8.357003e-02  9.065341e+00
2  6.592623e+00  1.255591e+01  1.090081e+01
2  1.339281e+01  1.262079e+01  1.016494e+01
2  1.014581e+01  1.181007e+01  1.357513e+01
2  5.760903e+00  8.429676e+00  8.127425e+00
2  3.804536e+00  1.595136e+01  1.868289e+00
2  3.416869e+00  4.697581e+00  1.509168e+01
2  1.604797e+01  5.094878e+00  6.561279e+00
2  3.673067e+00  1.430805e+01  1.664469e+01
2  4.550178e+00  4.138339e+00  1.049783e+01
2  1.287235e+01  2.908690e+00  4.181768e+00
2  1.199218e+01  1.850229e+00  8.959064e+00
2  5.116828e+00  1.114347e+01  4.567364e+00
2  3.704495e+00  9.667435e+00  9.229419e+00
2  3.782730e+00  9.883750e-01  3.545715e+00
2  8.527154e+00  1.347198e+01  1.252444e+01
2  1.358924e+01  4.360819e+00  6.497021e+00
2  7.758412e+00  8.443566e+00  1.130952e+01
2  1.906308e+00  2.574109e+00  1.340701e+01
2  8.477143e+00  1.167210e+01  9.235844e+00
2  1.057361e+00  3.349303e+00  1.591106e+01
2  9.086183e-01  8.465755e+00  1.365454e+01
2  5.055115e+00  6.362518e+00  1.348002e+01
2  1.077133e+01  1.158715e+01  6.202977e+00
2  1.180617e+01  2.968531e+00  1.216396e+01
2  8.210339e+00  9.376536e+00  7.709041e+00
2  8.607895e+00  1.079428e+01  1.167929e+01
2  9.368407e+00  1.699304e+00  1.206479e+01
2  1.201562e+01  5.837068e+00  1.796453e+00
2  8.040689e+00  8.149963e-02  3.603252e+00
2  1.180153e+01  6.732336e+00  5.885631e+00
2  1.504517e+01  9.860487e+00  4.666954e+00
2  1.450492e+01  5.963590e+00  1.640968e+01
2  1.684457e+01  1.022397e+01  1.064528e+01
2  7.763602e+00  1.118948e+01  5.479678e+00
2  6.437417e+00  1.384999e+01  8.694828e+00
2  5.637685e+00  2.746502e+00  8.532187e+00
2  6.512124e+00  8.549401e+00  5.714650e+00
2  9.638692e+00  5.364930e+00  3.197221e+00
2  1.011726e+01  3.656356e+00  7.659108e+00
2  2.701577e+00  7.369196e+00  1.192523e+01
2  6.523723e-01  1.153916e+01  1.296571e+01
2  7.952977e+00  3.670424e+00  2.800033e+00
2  1.101704e+01  1.115500e+01  1.588530e+01
2  1.464367e+01  1.341467e+01  3.073225e+00
2  3.260814e+00  4.608523e+00  8.069663e+00
2  9.584082e+00  2.680912e-01  1.600497e+01
2  4.914936e+00  8.490308e+00  1.126317e+01
2  3.117845e+00  5.655873e+00  3.245014e+00
2  1.619895e+01  8.127563e+00  1.691720e+01
2  1.138644e+01  9.492743e+00  1.282211e+00
2  4.578649e+00  3.174044e+00  1.324549e+01
2  5.855657e+00  1.618990e+01  5.977283e+00
2  5.871451e+00  1.698826e+01  1.255759e+01
2  1.012136e+01  8.509241e+00  1.606943e+01
2  6.543396e+00  4.635392e+00  1.461468e+01
2  1.591653e+01  2.103331e+00  1.416225e+01
2  1.479776e+01  1.503442e+01  1.575491e+01
2  1.574141e+01  3.717035e+00  4.375206e+00
2  3.163784e+00  1.612419e+01  5.142578e+00
2  8.643477e+00  3.085387e+00  5.549792e+00
2  1.504752e+01  2.883888e+00  8.299070e+00
2  6.377320e+00  1.156421e+01  7.613572e+00
2  6.450578e+00  2.262706e+00  8.514725e-01
2  1.497806e+01  1.127986e+01  1.200814e+01
2  1.004456e+01  1.424770e+01  1.499617e+01
2  1.603770e+01  1.501812e+01  1.244814e+00
2  2.694126e+00  5.009599e+00  6.766779e-01
2  1.538561e+01  1.669712e+01  1.372146e+01
2  1.287111e+00  1.701135e+01  6.572873e+00
2  5.755830e+00  1.650141e+01  1.699901e+01
2  9.183569e+00  1.288496e+01  3.245342e+00
2  4.006071e+00  1.307960e+01  2.041614e+00
2  1.027836e+01  1.066822e+01  3.485699e+00
2  1.541217e+01  3.190557e+00  1.663289e+01
2  4.444007e+00  1.245478e+01  9.404867e+00
2  1.033730e+01  4.153983e+00  1.672141e+01
2  1.590492e+01  1.698054e+01  6.464977e+00
2  8.820334e+00  5.821886e+00  1.541827e+01
2  1.413065e+01  1.634418e+01  1.132369e+01
2  1.576289e+01  8.481943e+00  2.548351e+00
2  7.126801e+00  4.981092e+00  3.354502e-01
2  1.584982e+01  9.595164e+00  7.141341e+00
2  3.154971e+00  1.163269e+01  1.425388e+01
2  4.494702e+00  9.601420e+00  1.605202e+01
2  2.011709e+00  1.536707e+01  1.207386e+01
2  3.769625e+00  7.181623e+00  9.303259e+00
2  1.630370e+01  1.058030e+01  1.686110e+01
2  1.184439e+01  1.608586e+00  1.682058e+01
2  3.965550e+00  1.354553e+01  4.671709e+00
2  9.361621e+00  6.191243e+00  1.102323e+01
2  1.929713e+00  1.544551e+01  1.485650e+01
2  8.324237e+00  1.606114e+01  7.538376e+00
2  6.403923e+00  1.333130e+01  6.031859e+00
2  1.135213e+01  5.862615e+00  8.977793e+00
2  1.025988e+00  1.198103e+01  1.562261e+01
2  4.430894e+00  1.449724e+01  1.294963e+01
2  1.251608e+01  1.247621e+01  1.590063e+00
2  9.323556e+00  6.372182e+00  6.851159e+00
2  1.543125e+01  1.229118e+01  8.489857e+00
2  3.519499e+00  8.176880e+00  1.604111e+00
2  1.698905e+01  2.290218e+00  6.230772e+00
2  1.408046e+01  8.542893e+00  1.252801e+01
2  7.971838e+00  8.215866e-02  9.608142e-01
2  6.233391e+00  2.318903e+00  4.385820e+00
2  1.519536e+01  6.057845e+00  1.918529e+00
2  1.259942e+01  1.296955e+01  1.276146e+01
2  1.277708e+01  2.440262e-01  4.589315e+00
2  1.043894e+01  7.924565e+00  2.988464e+00
2  1.082491e+01  1.485975e+01  1.171704e+01
2  4.674681e+00  1.065491e+01  1.810846e+00
2  1.101776e+01  1.313602e+01  8.218954e+00
2  2.370545e+00  1.084381e+00  1.555335e+01
2  1.058084e+01  1.407219e+01  5.944336e-01
2  1.295311e+01  3.980436e+00  9.823383e+00
2  8.838745e+00  1.688093e+00  8.774613e+00
2  1.676063e+01  1.609154e+01  1.119833e+01
2  1.672383e+00  3.828837e-01  1.055129e+01
2  1.059367e+01  8.548884e+00  1.171077e+01
2  1.222265e+01  1.614349e+01  1.604551e+01
2  6.139884e+00  9.002601e+00  1.370889e+01
2  1.047384e+01  1.784359e+00  3.817666e+00
2  8.625096e+00  9.220160e+00  1.086808e+00
2  4.972900e+00  6.029208e+00  1.406515e+00
2  1.185759e+00  7.697276e+00  2.918793e+00
2  1.706428e+01  1.288526e+01  4.038557e+00
2  4.931973e+00  1.109481e+01  1.212310e+01
2  1.906948e+00  9.432654e+00  1.607818e+01
2  1.103428e+01  1.688629e+01  1.370969e+00
2  1.501905e+01  1.449637e+01  9.552150e+00
2  7.100393e+00  1.122847e+01  8.931047e-01
2  1.125182e+01  9.295877e+00  5.532923e+00
2  1.709147e+01  1.296075e+01  1.051132e+01
2  1.351351e+01  1.040047e+00  2.195000e+00
2  1.342744e+01  3.267791e+00  1.470873e+01
2  6.996174e-01  1.011552e+01  4.896930e+00
2  1.137421e+01  3.119010e+00  1.796420e+00
2  1.511912e+00  1.017298e+01  1.578214e+00
