ITEM: TIMESTEP
0
ITEM: NUMBER OF ATOMS
160
ITEM: BOX BOUNDS pp pp pp
0.0	1.379911e+01
0.0	1.379911e+01
0.0	1.379911e+01
ITEM: ATOMS type x y z
1  2.768789e+00  1.422381e+00  8.033155e-01
1  9.698045e+00  5.684962e+00  5.933772e+00
1  1.016229e+01  1.092399e+01  1.118112e+01
1  5.131911e+00  1.151358e+01  6.722281e+00
1  1.227397e+01  6.685315e+00  1.049462e+01
1  1.079812e+01  6.885344e+00  4.092800e+00
1  9.388410e+00  8.330243e+00  2.585078e+00
1  3.198344e+00  1.093913e+01  7.975443e+00
1  3.639127e+00  1.370566e+01  3.841621e+00
1  8.209263e+00  2.117558e+00  1.179762e-01
1  7.290477e+00  6.627664e+00  1.066375e+01
1  8.482802e+00  1.314633e+01  6.967300e+00
1  1.054204e+01  1.315512e+00  3.786743e+00
1  6.524928e+00  2.452751e+00  5.798932e+00
1  1.160377e+01  1.086272e+01  4.969874e+00
1  2.216442e+00  3.414380e+00  9.928835e+00
1  1.136617e+01  4.571869e+00  1.156350e+01
1  2.079371e+00  9.810827e+00  1.058222e+00
1  8.774405e+00  8.531488e-01  2.107599e+00
1  6.421742e+00  9.765203e+00  5.418976e+00
1  1.379818e+01  7.329618e+00  1.244822e+01
1  4.677877e+00  1.264618e+00  2.141291e+00
1  8.405554e+00  1.780588e+00  7.134366e+00
1  6.707735e+00  1.205819e+01  8.514476e+00
1  1.572263e+00  5.172464e+00  2.085540e+00
1  5.626612e+00  8.470896e+00  1.544355e-02
1  4.597772e+00  8.845830e+00  3.977734e+00
1  1.080941e+01  1.156573e+01  8.788282e+00
1  1.300762e+01  1.280885e+01  9.878491e-01
1  1.103749e+01  9.546568e+00  6.995210e+00
1  2.803761e-01  1.145518e+01  5.018242e+00
1  1.026584e+00  1.340671e+01  1.105764e+01
1  4.575478e+00  9.864755e+00  1.694741e+00
1  3.312820e+00  2.224557e+00  8.110819e+00
1  5.550336e+00  1.212313e+01  1.243782e+01
1  8.648711e+00  4.463141e+00  1.288865e+00
1  5.650502e+00  6.259573e+00  8.881247e-01
1  1.226883e+01  2.799716e+00  3.034321e+00
1  7.728304e-01  1.085611e+01  1.064034e+01
1  1.275039e+01  3.032333e+00  1.288307e+01
1  1.285025e+00  9.845551e+00  6.570617e+00
1  3.228375e+00  9.342953e+00  9.969214e+00
1  2.311413e+00  6.231233e+00  5.901514e+00
1  3.482031e-01  1.357084e+01  6.165053e+00
1  1.207251e+01  1.930123e+00  8.252217e+00
1  8.143032e+00  1.236607e+01  2.404382e+00
1  6.171950e+00  7.879411e+00  6.998633e+00
1  3.321314e+00  4.958076e+00  3.870601e+00
1  2.405179e+00  6.473769e+00  1.202157e+01
1  9.502753e-01  8.394885e+00  2.702961e+00
1  8.348342e+00  2.712559e+00  9.455454e+00
1  2.351513e+00  8.478702e+00  4.769801e+00
1  6.398170e+00  4.110132e+00  9.853004e+00
1  7.933856e+00  8.106405e+00  8.699275e+00
1  2.726296e+00  6.836478e+00  9.505131e+00
1  5.438044e+00  6.253817e+00  3.401041e+00
1  5.823045e+00  1.366666e+01  1.035481e+01
1  1.060875e+01  3.792091e+00  9.315374e+00
1  3.720655e+00  2.738041e+00  1.278999e+01
1  1.016528e+01  1.328896e+01  1.193951e+01
1  1.855368e+00  1.236304e+00  4.896717e+00
1  1.038159e+01  8.514834e+00  4.722469e-01
1  5.101168e+00  3.832637e+00  7.264178e+00
1  1.468048e-01  5.524565e+00  6.386540e+00
2  8.562356e-01  7.846562e+00  7.625992e+00
2  9.521316e+00  4.065375e+00  3.939288e+00
2  8.596777e+00  4.870463e+00  1.251254e+01
2  1.096538e+01  1.169469e+01  2.493184e+00
2  7.262086e+00  6.302793e+00  5.293858e+00
2  8.940481e+00  1.038593e+01  4.223093e+00
2  1.253366e+01  8.506462e-01  1.213614e+01
2  4.640181e+00  6.052421e+00  6.228530e+00
2  4.579213e+00  2.563752e+00  4.447757e+00
2  5.262870e+00  9.973306e+00  1.117260e+01
2  7.729084e+00  1.034781e+01  1.014148e+01
2  6.471082e+00  1.379674e+01  5.171089e-01
2  1.254707e+01  8.894041e+00  3.697506e+00
2  8.595007e-01  1.227248e+01  8.456456e+00
2  6.979697e+00  3.831928e+00  3.815631e+00
2  1.286118e+01  7.828394e+00  1.046132e+00
2  1.281325e+00  1.329562e+01  1.352192e+01
2  1.325745e+01  5.272196e+00  4.012537e-01
2  1.016330e+01  2.066848e+00  1.258087e+01
2  1.283957e+01  1.519092e+00  1.159263e+00
2  4.474092e+00  1.926264e+00  1.034153e+01
2  1.350677e+01  6.317835e+00  3.782068e+00
2  1.238054e+01  1.373353e+01  3.588705e+00
2  1.234460e+01  9.450714e+00  1.130535e+01
2  5.665219e+00  1.232978e+01  2.518552e+00
2  5.945465e+00  3.397691e+00  1.035338e+00
2  1.318951e+01  1.007755e+01  8.640301e+00
2  6.568785e-01  8.478077e+00  1.039035e+01
2  1.055145e+01  1.324195e+00  1.022677e+01
2  5.733965e+00  1.076981e+00  8.009909e+00
2  1.041506e+01  1.294315e+01  5.291647e+00
2  8.139110e+00  8.549767e-01  1.116524e+01
2  1.179052e+01  5.941658e+00  7.764834e+00
2  3.456227e+00  8.200889e+00  7.399382e+00
2  7.353115e+00  1.256411e+01  4.790823e+00
2  1.051742e+01  3.060574e+00  6.433369e+00
2  3.443609e+00  5.161676e+00  1.377566e+01
2  3.177491e+00  1.121552e+01  5.294665e+00
2  1.252625e+01  1.196347e+01  1.223392e+01
2  3.412009e+00  8.911079e+00  1.260440e+01
2  1.360977e+01  1.100904e+01  2.581769e+00
2  6.162079e+00  2.134099e+00  1.251182e+01
2  1.057263e+01  1.222740e-01  7.785288e+00
2  6.904442e+00  1.035138e+00  3.621264e+00
2  3.669358e+00  1.235156e+01  2.671530e-01
2  8.920865e+00  5.485091e+00  8.866446e+00
2  8.128046e+00  6.899624e+00  5.084667e-01
2  2.486559e-01  3.217464e+00  5.164416e+00
2  5.873761e-01  3.321463e+00  7.831236e+00
2  3.394832e+00  1.348163e+01  9.573021e+00
2  4.735458e-01  4.639698e+00  1.176986e+01
2  5.493284e+00  9.596030e+00  8.644586e+00
2  5.881475e+00  4.738109e+00  1.245757e+01
2  2.834613e+00  1.344646e+01  7.008235e+00
2  8.935851e+00  8.255049e+00  6.103436e+00
2  1.202999e+01  9.998207e-01  5.775625e+00
2  6.838675e-01  9.853689e+00  1.282912e+01
2  1.296241e+00  3.540120e+00  3.899409e-02
2  3.299341e-01  5.376369e+00  9.198813e+00
2  2.578637e+00  1.173104e+01  2.753155e+00
2  3.060575e+00  4.835423e+00  8.203704e+00
2  1.072516e+01  2.873579e+00  1.132605e+00
2  9.407740e-01  1.070339e+00  8.742544e+00
2  1.324470e+01  2.913403e+00  1.025371e+01
2  5.275681e+00  2.447750e-01  5.629246e+00
2  3.073424e+00  7.293999e+00  2.485085e+00
2  1.059771e+01  7.833818e+00  9.184011e+00
2  7.649037e+00  4.261228e+00  6.786656e+00
2  1.268223e+01  7.834095e+00  6.033511e+00
2  3.027266e+00  1.151830e+01  1.176692e+01
2  7.070321e+00  8.712696e+00  2.623547e+00
2  8.180175e+00  6.067122e+00  2.950424e+00
2  3.429526e+00  3.373094e+00  2.011814e+00
2  1.818055e+00  7.217866e+00  4.083681e-01
2  8.670808e+00  1.270733e+01  9.636559e+00
2  7.077156e+00  1.065520e+01  3.527924e-01
2  1.192963e+01  4.654286e+00  4.980934e+00
2  7.905422e+00  1.233778e+01  1.218052e+01
2  8.635395e+00  1.066967e+01  7.532407e+00
2  2.682626e+00  3.343415e+00  6.116473e+00
2  8.357265e+00  8.975667e+00  1.236130e+01
2  1.371973e+00  1.872508e+00  1.187804e+01
2  1.073642e+01  1.847639e-01  7.224255e-01
2  5.229160e+00  6.225732e+00  8.617023e+00
2  1.060199e+01  5.736659e+00  4.859110e-02
2  1.209600e+01  1.035570e+01  6.715965e-01
2  1.234261e+01  1.203846e+01  7.114261e+00
2  4.090354e+00  4.832506e+00  1.087712e+01
2  1.193190e+00  1.101316e-02  2.331639e+00
2  1.138926e+01  5.009935e+00  2.319813e+00
2  1.248899e+01  1.346393e+01  9.683395e+00
2  4.890244e+00  7.433950e+00  1.100903e+01
2  9.999173e+00  7.162876e+00  1.181494e+01
2  9.709235e+00  1.135277e+01  2.491913e-01
2  1.001513e+00  2.582443e+00  2.591234e+00
2  3.521498e+00  1.808342e-01  1.205575e+01
