ITEM: TIMESTEP
0
ITEM: NUMBER OF ATOMS
192
ITEM: BOX BOUNDS pp pp pp
0.0	1.462591e+01
0.0	1.462591e+01
0.0	1.462591e+01
ITEM: ATOMS type x y z
1  1.647021e+00  1.333134e+00  1.239659e+00
1  8.892243e+00  6.136480e+00  4.995376e+00
1  9.911732e+00  1.210560e+01  1.107985e+01
1  6.467416e+00  1.228677e+01  5.979499e+00
1  1.150029e+01  8.418749e+00  1.188575e+01
1  1.118681e+01  6.874483e+00  3.766197e+00
1  9.541167e+00  7.955317e+00  2.279052e+00
1  2.238246e+00  1.141310e+01  7.230334e+00
1  5.511565e+00  1.301019e+01  3.578372e+00
1  8.537753e+00  1.854360e+00  3.540341e+00
1  5.169954e+00  1.101820e+01  9.980749e+00
1  9.055795e+00  2.893458e-01  7.483015e+00
1  1.170075e+01  2.445963e+00  5.122180e+00
1  6.258077e+00  3.277837e+00  7.004351e+00
1  1.205810e+01  8.930715e+00  5.152370e+00
1  3.153108e+00  1.337878e+00  8.347272e+00
1  7.798043e+00  6.680404e+00  9.491282e+00
1  3.470165e+00  9.498129e+00  2.252085e+00
1  1.079280e+01  1.301919e+01  3.512592e+00
1  7.993196e+00  1.051606e+01  6.026398e+00
1  1.361431e+01  1.003697e+01  1.024268e+00
1  8.604259e+00  1.690925e+00  1.241579e+00
1  8.546592e+00  2.713307e+00  7.923477e+00
1  6.584536e+00  1.400401e+01  7.671157e+00
1  1.443587e+01  6.176504e+00  1.461573e+01
1  5.929080e+00  7.429621e+00  1.414371e+01
1  5.215973e+00  8.017546e+00  5.732395e+00
1  1.286125e+01  1.172519e+01  8.277776e+00
1  1.348483e+00  1.355463e+01  1.540774e+00
1  1.258390e+01  7.872494e+00  9.831913e+00
1  4.859018e-01  1.317654e+01  3.842253e+00
1  1.562359e+00  1.408259e+01  1.145725e+01
1  5.545761e+00  8.985877e+00  3.486840e+00
1  5.116652e+00  1.233053e+00  6.865465e+00
1  5.081701e+00  1.324728e+01  1.427218e+01
1  9.933250e+00  6.173016e+00  5.590327e-01
1  7.882740e+00  5.729773e+00  1.360163e+01
1  1.263251e+01  3.167587e+00  2.835596e+00
1  5.393544e-01  1.170568e+01  1.190802e+01
1  1.351502e+01  3.831892e+00  1.340243e+01
1  1.834165e+00  8.952094e+00  7.816423e+00
1  2.570287e+00  1.037655e+01  1.263009e+01
1  2.441350e+00  5.061035e+00  5.634227e+00
1  6.698624e-01  4.662735e-01  5.331679e+00
1  1.274665e+01  1.794085e+00  9.027799e+00
1  8.794849e+00  1.221973e+01  1.859063e+00
1  8.824467e+00  9.908467e+00  8.196843e+00
1  2.468904e+00  4.489810e+00  2.989778e+00
1  2.243424e+00  8.111027e+00  1.282147e+01
1  1.715326e+00  8.653827e+00  3.696194e+00
1  9.483964e+00  2.306328e+00  1.177881e+01
1  2.700489e+00  7.591899e+00  5.783552e+00
1  5.061406e+00  2.306616e+00  1.202689e+01
1  7.463671e+00  9.571443e+00  1.344573e+01
1  1.166992e+00  5.190767e+00  1.000625e+01
1  5.165254e+00  4.465104e+00  2.573202e+00
1  6.749341e+00  1.391052e+01  1.244951e+01
1  1.117377e+01  5.691310e+00  9.218592e+00
1  3.377354e+00  3.997355e+00  1.296613e+01
1  1.240759e+01  1.445329e+01  1.408224e+01
1  4.658610e+00  7.015285e-01  4.509114e+00
1  9.418155e+00  1.016351e+01  3.527794e-01
1  5.311627e+00  6.507198e+00  9.893255e+00
1  1.452992e+01  5.102774e+00  6.104296e+00
2  1.455646e+01  6.712858e+00  8.083985e+00
2  7.855650e+00  5.502426e+00  2.398218e+00
2  5.548730e+00  5.668173e+00  1.216787e+01
2  1.288346e+01  1.174203e+01  3.195530e+00
2  6.159559e+00  6.205726e+00  4.518205e+00
2  9.750698e+00  1.051417e+01  4.114757e+00
2  1.346662e+01  3.632421e-01  1.155083e+01
2  3.466687e+00  6.821566e+00  3.551656e+00
2  3.608912e+00  2.939599e+00  7.641644e-01
2  5.042492e+00  1.082163e+01  1.272221e+01
2  3.279595e+00  1.330857e+01  9.447731e+00
2  8.669129e+00  5.245733e-01  1.327612e+01
2  1.453665e+01  7.567945e+00  5.274831e+00
2  6.874077e-01  1.257030e+01  9.100939e+00
2  7.038047e+00  3.835716e+00  4.543671e+00
2  1.163474e+01  9.481434e+00  2.628146e+00
2  5.051246e-01  2.087259e-01  1.374384e+01
2  1.153922e+01  8.749523e+00  7.641411e-02
2  7.641705e+00  7.808538e+00  1.176818e+01
2  1.366730e+01  1.818858e+00  4.165622e-01
2  3.788300e+00  7.298402e-01  1.071987e+01
2  1.333868e+01  7.639932e+00  1.790519e+00
2  1.305295e+01  1.413884e+01  2.023369e+00
2  1.265300e+01  1.261149e+01  1.186317e+01
2  7.859955e+00  8.457238e+00  4.230185e+00
2  9.566099e+00  3.784366e+00  5.441655e+00
2  1.441238e+01  1.006258e+01  9.778170e+00
2  1.427225e+01  7.594618e+00  1.232557e+01
2  1.028963e+01  1.270733e+00  9.634121e+00
2  7.106958e+00  1.445181e+00  1.018619e+01
2  1.183860e+01  1.169316e+01  5.769242e+00
2  1.111537e+01  3.616144e+00  1.057944e+01
2  1.217322e+01  7.149066e+00  7.062723e+00
2  2.987866e+00  6.188483e+00  8.383750e+00
2  8.071690e+00  1.378645e+01  4.058318e+00
2  1.104319e+01  3.688927e+00  7.605421e+00
2  3.371771e+00  7.562378e+00  7.141933e-01
2  1.664346e+00  1.105252e+01  4.548827e+00
2  1.429152e+01  1.249322e+01  1.430182e+01
2  2.339677e+00  1.274225e+01  1.381947e+01
2  1.406268e+01  9.427715e+00  3.301121e+00
2  7.357729e+00  3.317668e+00  1.258676e+01
2  1.000793e+01  1.207151e+01  8.265654e+00
2  1.184468e+01  5.142720e+00  5.258083e+00
2  6.293117e+00  1.170047e+00  1.423082e+01
2  9.604398e+00  5.957346e+00  1.156850e+01
2  1.001942e+01  1.414088e+01  7.653637e-01
2  5.158100e-01  3.275379e+00  4.242521e+00
2  2.410033e+00  2.092849e+00  5.917048e+00
2  1.815588e+00  1.399924e+01  7.457052e+00
2  1.269030e+00  3.536364e+00  7.873675e+00
2  2.659853e+00  1.063020e+01  9.892936e+00
2  3.183792e+00  6.307502e+00  1.141368e+01
2  4.697060e+00  1.198573e+01  7.774332e+00
2  9.930247e+00  8.534126e+00  5.908986e+00
2  1.274303e+01  5.965805e-02  4.672607e+00
2  3.825038e+00  1.087492e+01  4.618816e-01
2  4.699837e+00  5.268847e+00  4.393650e-03
2  1.343410e+01  4.389702e+00  8.605017e+00
2  3.265270e+00  1.203243e+01  2.864891e+00
2  3.951890e+00  3.761187e+00  7.541010e+00
2  1.234591e+01  4.874681e+00  8.753538e-01
2  4.376988e-01  7.921657e-01  9.202803e+00
2  1.451526e+01  2.960288e+00  1.107177e+01
2  7.300310e+00  1.182566e+00  5.424461e+00
2  3.024338e-01  3.881903e+00  1.604788e+00
2  1.128046e+01  9.723916e+00  7.792760e+00
2  5.670162e+00  5.795831e+00  7.449277e+00
2  1.001090e+01  7.588120e+00  8.368114e+00
2  3.268054e+00  6.518593e-01  1.362724e+01
2  5.526771e+00  6.839674e+00  2.000839e+00
2  9.213090e+00  9.565072e+00  1.109997e+01
2  6.851993e+00  3.634881e+00  5.288063e-01
2  6.130555e-01  8.730669e+00  1.451539e+01
2  8.476183e+00  1.388762e+01  9.854504e+00
2  6.870733e+00  1.417481e+01  1.703068e+00
2  1.014265e+01  4.080020e+00  2.098068e+00
2  7.324133e+00  1.143451e+01  1.146430e+01
2  7.212433e+00  1.167051e+01  8.546647e+00
2  4.275751e+00  3.243889e+00  4.793245e+00
2  9.552094e+00  7.853316e+00  1.323714e+01
2  1.105458e+00  6.611182e+00  2.358581e+00
2  1.061194e+01  1.453147e+01  1.175113e+01
2  4.073745e+00  8.760840e+00  9.303509e+00
2  1.095290e+01  1.091478e+01  1.316323e+01
2  1.362422e+00  1.093966e+01  8.244050e-01
2  1.393362e+01  9.074250e+00  7.231578e+00
2  5.646842e+00  3.674224e+00  9.937973e+00
2  1.447967e+01  1.349536e+00  2.918056e+00
2  1.106422e+01  1.863401e+00  6.811455e-01
2  1.217397e+01  1.390560e+01  9.743523e+00
2  4.948595e+00  8.305632e+00  1.185141e+01
2  1.159414e+01  1.224097e+01  7.839660e-01
2  1.190519e+01  2.129385e+00  1.271429e+01
2  2.546641e+00  1.783333e+00  3.410044e+00
2  4.034944e+00  1.299127e+01  1.193864e+01
2  1.447142e+01  1.168370e+01  6.450389e+00
2  1.189986e+01  6.132917e+00  1.316170e+01
2  1.374495e+01  5.532027e+00  3.545063e+00
2  9.930373e+00  7.515216e-01  5.145233e+00
2  9.388592e+00  1.247411e+01  5.716964e+00
2  1.159995e+01  5.980517e-01  7.150844e+00
2  1.381307e+01  2.463952e+00  6.488894e+00
2  5.749778e+00  1.354982e+01  9.987791e+00
2  1.187949e+01  1.038445e+01  1.022230e+01
2  8.672552e+00  1.232542e+01  1.360553e+01
2  7.672029e+00  7.673349e+00  6.936661e+00
2  4.226237e+00  2.777700e-01  1.417842e+00
2  8.842556e-01  5.209895e+00  1.241024e+01
2  1.093602e+01  7.635244e-01  2.741707e+00
2  7.140099e+00  1.075695e+01  3.331477e+00
2  6.041239e+00  2.045814e+00  2.593229e+00
2  1.384258e+01  1.410146e+01  7.483765e+00
2  9.191483e+00  5.410902e+00  7.439322e+00
2  4.266299e+00  1.086957e+01  5.342193e+00
2  1.585329e+00  7.888916e+00  1.007506e+01
2  2.954287e+00  1.329729e+01  5.093008e+00
2  6.719963e+00  1.122680e+01  5.945597e-01
2  2.100003e+00  5.192178e+00  2.364164e-01
2  3.097208e+00  3.400013e+00  1.032906e+01
2  1.335639e+01  5.239913e+00  1.109671e+01
2  5.674150e+00  9.639022e+00  7.413262e+00
2  1.361165e+00  2.736526e+00  1.351352e+01
2  1.336832e+01  9.816797e+00  1.302255e+01
2  6.710857e+00  9.172827e+00  9.754549e+00
2  7.248363e+00  8.613932e+00  1.658134e+00
2  9.662737e+00  3.638150e+00  1.395921e+01
2  8.426505e+00  4.154236e+00  1.013262e+01
