ITEM: TIMESTEP
0
ITEM: NUMBER OF ATOMS
77
ITEM: BOX BOUNDS pp pp pp
0.0	1.147715e+01
0.0	1.147715e+01
0.0	1.147715e+01
ITEM: ATOMS type x y z
1  3.862520e+00  7.612140e-01  1.056204e+01
1  6.549048e+00  4.203492e+00  3.964895e+00
1  8.160342e+00  1.014015e+01  9.307488e+00
1  4.303050e+00  9.835290e+00  4.987675e+00
1  1.083505e+01  7.043845e+00  9.587552e+00
1  8.350245e+00  5.805691e+00  3.376656e+00
1  8.758618e+00  5.472572e+00  9.560657e-01
1  2.188500e+00  9.418492e+00  6.156062e+00
1  3.662303e+00  1.108092e+01  2.944978e+00
1  8.532069e+00  1.208710e+00  9.531208e-02
1  8.629102e+00  7.636552e+00  9.252366e+00
1  7.204447e+00  1.170077e+00  6.273651e+00
1  7.601886e+00  2.071719e+00  3.966677e+00
1  3.421973e+00  3.419675e+00  7.566719e+00
1  7.665285e+00  8.180743e+00  3.970988e+00
1  1.292494e+00  1.130753e+01  7.383127e+00
1  1.115530e+01  4.828671e+00  8.453885e+00
1  2.153094e+00  8.342789e+00  1.865006e-01
1  7.343950e+00  4.208169e-01  2.149098e+00
1  5.430746e+00  7.832967e+00  4.714099e+00
1  1.051404e+01  6.900110e+00  4.885671e-01
1  5.153227e+00  2.403636e-01  1.181429e+00
1  5.565097e+00  4.349136e+00  6.263204e+00
1  5.026805e+00  1.132839e+01  6.713470e+00
1  1.695663e+00  4.004303e+00  9.004266e-01
1  5.059017e+00  6.453648e+00  1.066729e+01
1  4.220620e+00  6.642435e+00  2.867158e+00
1  8.776074e+00  1.095292e+01  7.024371e+00
1  1.809899e+00  1.028804e+01  1.552743e+00
1  9.020666e+00  8.871011e+00  5.815621e+00
1  1.147416e+01  1.003420e+01  3.035450e+00
1  6.262989e-01  1.081874e+01  9.735447e+00
1  4.533648e+00  7.943038e+00  8.188749e-01
1  3.007191e+00  1.327048e+00  6.453599e+00
1  4.757576e+00  7.659462e+00  8.527710e+00
1  7.308274e+00  5.754874e+00  1.037701e+01
1  3.960726e+00  4.337294e+00  1.147019e+01
1  9.873279e+00  2.602081e+00  3.531458e+00
1  1.125103e+00  8.500834e+00  9.533996e+00
1  9.750808e+00  3.212679e+00  1.103223e+00
1  4.748883e-01  8.375680e+00  4.683178e+00
1  2.579468e+00  7.594314e+00  7.790069e+00
1  1.349391e+00  4.861018e+00  4.750010e+00
1  1.129547e+01  7.314519e-01  4.183535e+00
1  1.074718e+01  9.583377e-01  6.576236e+00
1  7.658082e+00  9.497076e+00  2.009312e+00
1  5.845996e+00  6.604833e+00  6.673213e+00
1  2.593785e+00  3.401648e+00  3.209893e+00
1  2.813840e-01  2.742115e+00  1.109385e+01
1  1.142282e+00  6.367500e+00  1.351333e+00
1  7.370748e+00  3.304121e+00  7.287980e+00
1  1.894854e+00  6.786188e+00  3.521688e+00
1  6.869761e+00  3.406315e+00  9.628209e+00
1  8.117637e+00  6.864438e+00  7.026481e+00
1  1.738678e+00  5.259719e+00  7.177918e+00
1  4.676737e+00  4.233060e+00  2.529375e+00
1  6.046399e+00  9.610185e+00  2.030859e-01
1  9.189318e+00  4.718234e+00  6.694497e+00
1  1.718048e+00  6.222469e-01  1.146708e+01
1  9.972291e+00  1.085399e+01  1.076412e+01
1  2.237863e+00  1.246841e+00  4.212036e+00
1  1.000757e+01  9.221515e+00  1.224669e+00
1  4.460903e+00  2.925497e+00  9.650507e+00
1  1.027667e+01  4.895061e+00  4.494985e+00
2  1.090686e+01  9.563330e+00  6.798157e+00
2  6.015954e+00  2.739536e+00  5.211057e-01
2  2.166112e+00  5.826589e+00  1.015472e+01
2  6.461073e+00  9.328817e+00  7.785842e+00
2  4.963964e+00  1.912363e+00  4.643441e+00
2  6.738272e+00  6.920754e+00  1.124700e+00
2  1.023142e+01  1.881065e+00  9.168298e+00
2  3.631949e+00  5.917177e+00  5.548911e+00
2  1.093775e+01  8.017389e-01  1.560501e+00
2  1.119543e+01  3.234405e+00  6.264849e+00
2  4.459682e+00  1.040294e+01  9.231078e+00
2  6.498480e+00  5.518941e-01  9.980031e+00
2  1.084356e+01  6.836232e+00  6.259393e+00
