ITEM: TIMESTEP
0
ITEM: NUMBER OF ATOMS
274
ITEM: BOX BOUNDS pp pp pp
0.0	1.647449e+01
0.0	1.647449e+01
0.0	1.647449e+01
ITEM: ATOMS type x y z
1  1.818703e+00  1.571167e+00  8.965812e-01
1  9.989332e+00  4.812047e+00  4.652336e+00
1  1.275342e+01  1.645703e+01  1.436165e+01
1  5.218043e+00  1.341583e+01  8.298799e+00
1  1.494952e+01  7.907792e+00  1.263313e+01
1  1.434175e+01  6.998007e+00  5.247733e+00
1  1.096651e+01  9.425112e+00  4.589702e+00
1  1.489268e+00  1.146138e+01  1.050157e+01
1  6.937445e+00  1.296731e+01  4.435096e+00
1  9.915662e+00  3.015869e+00  4.641870e-02
1  6.086785e+00  1.151418e+01  1.321912e+01
1  9.972343e+00  1.609862e+01  8.264812e+00
1  1.300986e+01  2.036107e+00  5.717907e+00
1  5.504983e+00  5.541784e+00  7.083782e+00
1  1.492436e+01  1.074605e+01  7.342588e+00
1  2.579081e+00  3.002567e+00  1.133358e+01
1  9.841074e+00  7.356557e+00  8.818069e+00
1  1.998949e+00  1.101345e+01  1.529072e+01
1  1.162175e+01  1.344703e+01  5.294625e+00
1  9.752022e+00  1.382443e+01  1.216767e+01
1  1.504417e+01  1.086045e+01  2.160009e+00
1  6.238978e+00  1.183397e+00  6.292450e+00
1  9.232899e+00  3.472735e+00  8.928041e+00
1  6.396328e+00  1.479657e+01  1.005097e+01
1  1.243711e+00  6.987024e+00  1.092639e+00
1  5.977520e+00  8.376079e+00  1.413459e-01
1  6.747460e+00  8.715627e+00  4.892055e+00
1  1.372149e+01  1.441576e+01  9.835972e+00
1  2.570622e+00  1.365363e+01  1.669263e+00
1  1.358820e+01  1.048726e+01  9.518287e+00
1  1.620615e+01  1.459803e+01  5.258686e+00
1  3.591261e+00  1.528563e+01  1.347430e+01
1  6.954415e+00  1.064846e+01  7.253107e-01
1  4.531717e+00  2.562246e+00  1.016484e+01
1  6.580758e+00  1.534570e+01  1.576856e-01
1  1.267531e+01  7.537017e+00  6.934790e-01
1  8.018672e+00  6.817752e+00  4.553255e-01
1  1.373485e+01  3.423242e+00  1.434464e+00
1  7.513504e-01  1.560070e+01  1.356200e+01
1  1.626348e+01  4.000289e+00  1.451119e+01
1  2.711665e+00  1.152110e+01  5.315401e+00
1  1.433523e+01  1.205712e+01  1.413001e+01
1  1.305809e+00  2.485552e+00  6.655710e+00
1  1.343709e+00  1.568444e+01  9.258440e+00
1  1.363288e+01  1.884122e+00  1.035797e+01
1  9.482388e+00  2.551785e-01  3.050718e+00
1  9.132893e+00  1.129157e+01  8.397817e+00
1  6.111356e+00  3.401276e+00  2.294152e+00
1  2.987853e+00  7.388137e+00  1.326309e+01
1  2.298776e+00  8.925706e+00  2.483836e+00
1  1.169010e+01  4.784853e+00  1.315446e+01
1  1.967893e+00  9.226645e+00  4.976535e+00
1  6.812156e+00  6.462193e+00  1.210748e+01
1  1.065103e+01  9.757395e+00  1.347202e+01
1  1.250944e+00  6.990255e+00  9.032043e+00
1  4.674259e+00  5.239405e+00  2.832552e+00
1  8.378259e+00  1.135902e+00  1.276026e+01
1  1.336593e+01  5.302613e+00  8.946219e+00
1  4.978663e+00  3.560017e+00  1.490027e+01
1  1.411175e+01  1.547960e+01  1.417550e+00
1  3.922853e+00  1.600051e+01  4.523516e+00
1  1.058198e+01  1.255970e+01  9.358853e-01
1  5.178303e+00  9.453033e+00  9.208994e+00
1  8.834073e-01  4.290382e+00  4.924829e+00
2  1.626191e+01  8.536248e+00  6.310896e+00
2  1.380719e+01  5.940035e+00  2.631221e+00
2  9.462178e+00  7.829320e+00  1.475202e+01
2  1.171596e+01  1.179161e+01  1.531366e+01
2  8.868370e+00  8.250517e+00  3.249665e+00
2  1.122200e+01  1.133992e+01  6.453450e+00
2  1.318567e+01  1.338520e+00  2.413139e-01
2  4.144057e+00  7.466813e+00  4.353593e+00
2  7.853966e+00  1.295448e+01  1.621294e+01
2  5.816971e+00  1.402339e+01  1.467206e+01
2  1.602784e+01  1.492305e+01  1.105024e+01
2  7.551074e+00  2.546032e+00  1.509361e+01
2  1.623892e+01  6.475033e+00  3.384610e+00
2  1.580809e+01  1.078749e+00  1.193025e+01
2  7.552576e+00  6.223411e+00  5.081405e+00
2  1.284281e+01  1.138788e+01  3.965417e+00
2  3.669495e+00  3.375463e+00  6.644707e-01
2  2.653484e-01  6.464736e+00  1.376869e+01
2  1.225889e+01  5.995361e+00  1.532503e+01
2  1.603754e+01  6.676674e-01  2.349561e+00
2  3.822899e+00  1.537135e+01  9.673774e+00
2  1.597186e+01  9.120974e+00  3.851267e+00
2  2.199942e+00  1.511189e+01  6.658428e+00
2  1.465861e+01  1.005054e+01  1.608785e+01
2  9.037244e+00  9.769289e+00  5.863082e+00
2  6.080396e+00  3.661813e+00  5.105519e+00
2  1.564124e+01  1.246428e+01  9.784867e+00
2  1.554890e+01  8.497270e+00  8.875489e+00
2  1.222709e+01  2.114179e+00  1.271575e+01
2  7.992302e+00  5.283327e+00  7.859504e+00
2  1.221477e+01  1.503955e+01  7.551550e+00
2  1.456761e+01  1.891961e+00  1.432305e+01
2  1.562779e+01  6.434600e+00  7.549916e+00
2  1.776243e+00  6.610931e+00  6.144623e+00
2  5.797349e+00  6.024609e-01  8.912085e+00
2  1.176131e+01  3.471498e+00  9.213804e+00
2  4.577049e+00  9.336104e+00  1.293453e+01
2  4.516628e+00  1.358468e+01  5.450474e+00
2  2.303810e-01  1.255589e+01  8.412259e-01
2  4.693480e+00  1.166915e+01  1.525512e+01
2  1.531817e+01  1.173091e+01  4.666500e+00
2  7.905642e+00  7.698199e+00  7.206840e+00
2  1.317629e+01  1.587549e+01  1.173602e+01
2  1.258327e+01  1.158985e+00  8.277478e+00
2  4.235620e+00  1.346944e+00  2.296736e+00
2  1.252194e+01  7.457270e+00  7.525335e+00
2  8.652486e+00  1.626251e+01  1.496873e+01
2  1.573144e+01  2.107267e+00  4.498823e+00
2  1.539922e+01  3.719669e+00  9.490107e+00
2  7.731437e-01  1.754439e+00  9.579448e+00
2  5.794451e+00  2.613524e+00  1.252618e+01
2  4.182119e+00  1.151754e+01  1.037246e+01
2  6.898169e+00  9.611804e+00  1.444623e+01
2  2.693168e+00  1.322978e+01  8.957753e+00
2  1.217331e+01  5.812205e+00  5.432899e+00
2  9.803908e+00  1.356877e+01  7.221070e+00
2  1.277025e+00  1.162752e+01  3.045293e+00
2  4.042542e+00  7.338938e+00  1.201875e+00
2  1.221409e+00  4.287527e+00  8.790893e+00
2  2.202562e+00  1.375895e+01  4.209130e+00
2  3.564721e+00  3.755298e+00  7.660807e+00
2  1.417670e+01  5.593375e+00  1.350548e+01
2  2.130019e+00  2.979828e-01  1.148327e+01
2  1.622775e+01  4.537344e+00  1.193587e+01
2  8.863469e+00  5.874034e-01  5.714285e+00
2  5.119104e+00  9.581306e+00  2.721819e+00
2  1.148236e+01  1.256554e+01  8.834326e+00
2  1.113214e+01  6.936395e+00  3.236300e+00
2  1.138687e+01  9.672631e+00  8.380888e+00
2  5.600172e+00  1.935615e+00  1.247272e-01
2  6.423875e+00  7.144261e+00  2.858310e+00
2  1.325289e+01  1.015953e+01  1.308570e+01
2  5.923598e+00  2.240346e-01  1.419185e+01
2  3.226051e+00  5.815484e+00  1.566243e+01
2  7.651144e+00  1.488148e+01  7.626890e+00
2  3.617927e+00  9.816605e-02  1.595738e+01
2  1.248531e+01  4.075260e+00  3.851291e+00
2  7.935483e+00  3.856300e+00  1.257531e+01
2  7.384348e+00  1.271560e+01  1.157437e+01
2  4.579534e+00  7.576195e+00  1.112358e+01
2  1.217595e+01  1.385043e+01  1.343958e+01
2  1.587368e+01  4.005622e+00  2.678497e+00
2  1.026583e+01  3.389005e+00  1.138428e+01
2  2.637900e+00  9.125097e+00  1.007573e+01
2  1.215816e+01  7.592810e+00  1.275079e+01
2  1.862335e-02  1.435992e+01  2.543702e+00
2  6.117356e-01  1.247582e+01  6.612354e+00
2  6.057636e+00  4.525667e+00  1.060005e+01
2  1.336038e+00  3.423634e-01  4.915050e+00
2  9.583773e+00  6.075164e+00  1.274310e+01
2  1.529352e+01  1.642793e+01  1.558005e+01
2  1.586097e+01  1.013663e+01  1.125117e+01
2  1.082604e+01  1.427822e+01  2.857393e+00
2  1.076643e+01  7.614829e-01  1.576482e+01
2  2.558489e+00  2.975375e+00  3.112577e+00
2  3.237577e+00  1.372990e+01  1.568145e+01
2  1.562443e+01  1.430693e+01  7.993794e+00
2  1.356448e+01  4.417871e+00  1.127738e+01
2  5.409359e+00  5.463551e+00  1.587935e-01
2  7.487791e+00  1.238607e+01  6.809036e+00
2  9.013261e+00  1.364298e+01  9.692732e+00
2  1.081401e+01  1.178682e+00  9.979058e+00
2  1.439365e+01  1.619469e+01  6.336566e+00
2  4.879180e+00  1.372123e+01  1.194635e+01
2  1.460800e+01  1.346261e+01  1.614485e+01
2  8.760890e+00  1.186010e+01  1.362881e+01
2  5.170249e+00  7.990837e+00  6.820343e+00
2  5.445478e+00  1.292511e+01  7.930432e-01
2  5.528371e+00  7.305039e+00  1.408368e+01
2  1.291128e+01  3.887379e+00  7.080756e+00
2  8.514991e+00  1.286769e+01  2.482885e+00
2  7.260595e+00  2.182119e+00  1.045382e+01
2  1.757793e-01  9.018810e-03  7.247438e+00
2  1.068655e+01  2.119693e+00  6.986922e+00
2  5.344392e+00  1.106730e+01  5.131238e+00
2  2.880161e+00  8.632258e+00  7.525079e+00
2  2.093392e+00  1.600353e+01  2.365216e+00
2  7.281831e+00  1.517612e+01  1.249669e+01
2  1.518935e+01  8.143245e+00  1.414199e+00
2  6.458637e+00  6.888536e+00  9.448551e+00
2  2.219916e+00  4.291350e+00  1.392685e+01
2  6.692827e+00  1.180578e+01  9.267551e+00
2  3.595035e+00  1.648645e+00  1.380175e+01
2  6.419210e-01  7.873472e+00  1.144534e+01
2  6.622194e+00  1.024286e+01  1.110750e+01
2  9.016309e+00  1.464532e+01  4.914983e+00
2  1.133794e+01  6.146575e+00  1.076612e+01
2  7.918420e+00  8.994587e+00  9.323776e+00
2  9.119991e+00  1.099127e+01  1.111163e+01
2  8.637920e+00  1.616770e+01  1.033237e+01
2  1.260598e+01  3.564811e+00  1.550175e+01
2  9.376987e+00  1.515274e+01  7.552388e-01
2  8.574835e+00  5.516624e+00  2.542414e+00
2  1.334000e+01  8.686755e+00  3.154761e+00
2  1.462562e+01  4.342174e+00  5.230464e+00
2  6.872450e-01  1.058359e+01  8.331674e+00
2  7.464652e+00  1.050924e+01  3.249038e+00
2  6.599014e+00  1.528636e+01  5.224840e+00
2  6.275280e+00  3.202855e+00  7.939980e+00
2  6.776452e+00  9.956141e+00  7.242388e+00
2  1.143179e+01  4.876688e+00  1.132453e+00
2  1.059645e+01  5.114797e+00  7.466976e+00
2  9.578326e-01  4.269032e+00  4.288120e-01
2  1.606684e+01  9.980468e+00  1.366967e+01
2  7.206048e+00  1.478899e+00  3.772189e+00
2  9.350322e+00  1.046605e+01  1.602714e+01
2  1.323375e+01  9.589994e+00  5.820040e+00
2  3.822156e+00  6.007596e+00  8.973969e+00
2  1.206046e+01  1.449779e+01  1.625423e+01
2  2.321059e+00  5.707158e+00  1.096351e+01
2  3.550181e+00  5.032314e+00  5.342229e+00
2  1.465987e+01  5.216197e+00  1.630795e+01
2  1.008292e+01  8.425235e+00  1.019772e+00
2  4.567862e+00  5.144411e+00  1.278967e+01
2  7.041964e+00  1.511089e+01  2.688665e+00
2  5.049474e+00  1.335678e-01  1.148411e+01
2  9.890611e+00  1.400605e+01  1.476840e+01
2  6.996695e+00  5.184307e+00  1.459524e+01
2  1.332693e+00  1.544001e+01  1.645807e+01
2  1.166608e+01  1.612219e+01  4.887759e+00
2  1.358993e+01  1.251893e+00  3.281458e+00
2  4.755192e+00  1.553647e+01  6.979546e+00
2  8.067849e+00  1.220592e+00  8.111056e+00
2  1.503445e+01  2.067964e+00  7.606430e+00
2  3.906974e+00  1.119803e+01  7.660803e+00
2  1.155511e+01  2.273016e+00  2.041568e+00
2  1.154995e+01  1.158661e+01  1.165572e+01
2  1.073674e+01  4.187393e-02  1.250745e+01
2  1.223421e+01  1.012999e+01  9.044686e-01
2  7.677564e+00  4.222407e+00  5.651957e-01
2  9.200993e-01  1.665292e+00  1.451636e+01
2  3.160411e+00  9.217374e-01  7.921607e+00
2  9.965291e+00  2.889145e+00  1.400740e+01
2  1.396900e+01  1.331390e+01  6.295413e+00
2  4.206082e+00  1.227291e+01  3.225353e+00
2  1.022105e+01  1.071666e+01  2.512608e+00
2  1.576778e+01  2.291639e+00  1.952000e-01
2  2.006312e+00  1.410676e+01  1.135082e+01
2  9.548992e+00  5.168284e+00  1.521430e+01
2  1.073729e+01  2.416433e+00  4.440554e+00
2  8.730414e+00  5.578808e+00  1.050992e+01
2  1.491310e+01  1.478405e-01  9.296080e+00
2  1.485848e+01  7.526260e+00  1.532534e+01
2  1.363083e+01  1.445469e+01  3.836153e+00
2  1.033217e+01  7.541005e+00  6.069483e+00
2  3.913616e+00  9.064850e+00  1.544758e+01
2  2.941832e+00  1.236294e+01  1.303991e+01
2  1.641765e+01  1.245479e+01  1.236502e+01
2  1.514836e+01  6.255551e+00  1.026630e+01
2  1.390730e+00  8.280005e+00  1.534198e+01
2  1.159151e+01  1.635795e+01  1.653515e+00
2  4.519394e+00  1.521712e+01  1.903458e+00
2  8.323309e+00  8.595887e+00  1.227245e+01
2  2.069840e+00  9.770499e+00  1.255805e+01
2  1.139670e+01  1.472142e+01  1.035785e+01
2  9.432677e+00  1.188596e+01  4.657111e+00
2  8.332570e+00  3.211061e+00  6.319587e+00
2  6.936604e-01  1.006700e+01  7.786045e-01
2  5.579007e-01  1.322803e+01  1.476213e+01
2  1.248676e+01  8.911119e+00  1.514696e+01
2  1.050883e+01  8.705903e+00  1.098793e+01
2  1.404106e+01  1.228853e+01  1.168791e+01
2  3.222805e+00  1.091821e+01  1.096020e+00
2  3.959205e+00  1.931434e+00  5.452501e+00
2  1.321589e+01  8.182783e+00  1.037837e+01
2  9.023095e+00  3.072448e+00  2.576057e+00
2  8.063336e+00  1.289297e+00  8.140286e-01
2  2.383548e+00  5.959476e+00  3.060894e+00
2  1.484179e+01  1.451375e+01  1.373903e+01
2  1.316274e+01  1.296581e+01  1.789637e+00
