ITEM: TIMESTEP
0
ITEM: NUMBER OF ATOMS
100
ITEM: BOX BOUNDS pp pp pp
0.0	1.209768e+01
0.0	1.209768e+01
0.0	1.209768e+01
ITEM: ATOMS type x y z
1  4.896992e+00  8.971454e-01  1.208757e+01
1  6.715981e+00  4.792767e+00  3.211139e+00
1  7.915574e+00  1.017476e+01  9.645970e+00
1  4.096921e+00  1.023818e+01  5.522729e+00
1  1.127485e+01  7.896646e+00  1.025324e+01
1  8.088517e+00  6.798511e+00  3.144353e+00
1  8.956507e+00  6.233315e+00  8.811547e-01
1  2.074596e+00  9.895328e+00  6.785923e+00
1  3.723402e+00  1.177758e+01  3.550774e+00
1  8.477551e+00  1.098200e+00  2.071563e-01
1  8.767623e+00  7.961372e+00  9.667695e+00
1  7.452456e+00  6.465291e-01  6.623329e+00
1  8.808705e+00  3.701555e-01  4.439484e+00
1  4.467782e+00  3.178151e+00  8.465124e+00
1  7.236488e+00  8.891199e+00  3.949071e+00
1  1.841120e+00  1.195863e+01  8.119605e+00
1  1.177269e+01  5.794550e+00  9.129268e+00
1  1.984234e+00  9.009330e+00  4.450260e-01
1  7.636794e+00  2.697650e-01  2.249958e+00
1  5.090168e+00  8.186309e+00  4.738739e+00
1  1.068098e+01  7.812258e+00  4.645865e-01
1  5.428947e+00  1.265194e+00  2.377732e+00
1  6.687532e+00  2.793344e+00  7.218602e+00
1  5.387263e+00  1.155420e+01  7.131225e+00
1  1.512900e+00  5.089673e+00  3.576007e-01
1  4.859041e+00  6.967769e+00  1.108060e+01
1  3.734144e+00  7.439540e+00  2.882321e+00
1  8.953100e+00  1.118728e+01  7.718991e+00
1  1.912481e+00  1.112646e+01  1.715231e+00
1  8.783475e+00  9.295245e+00  6.105669e+00
1  2.004118e-01  1.114196e+01  3.421237e+00
1  9.750791e-01  1.159477e+01  1.027693e+01
1  4.239890e+00  8.601007e+00  8.088925e-01
1  3.683789e+00  1.095266e+00  7.390982e+00
1  4.871359e+00  7.863699e+00  8.739398e+00
1  7.267504e+00  6.523872e+00  1.107289e+01
1  4.056009e+00  4.922219e+00  1.209494e+01
1  1.061447e+01  2.093952e+00  4.124582e+00
1  1.438009e+00  9.239665e+00  1.032900e+01
1  1.073833e+01  2.866888e+00  1.831874e+00
1  2.422923e-01  9.154249e+00  4.969099e+00
1  2.454098e+00  8.172418e+00  8.434896e+00
1  8.119565e-01  4.798935e+00  4.533835e+00
1  6.489476e-01  9.395360e-01  4.813472e+00
1  1.198790e+01  9.509453e-01  7.125015e+00
1  7.506427e+00  1.007958e+01  1.770507e+00
1  5.872828e+00  4.707951e+00  5.654107e+00
1  1.116557e+00  3.512928e+00  2.267653e+00
1  3.432097e-01  3.859288e+00  1.073090e+01
1  7.685323e-01  7.171017e+00  1.336370e+00
1  8.614603e+00  3.402124e+00  8.742737e+00
1  1.270126e+00  7.191252e+00  3.631186e+00
1  7.433077e+00  4.002109e+00  1.082346e+01
1  8.277357e+00  7.193262e+00  7.342769e+00
1  1.556640e+00  6.131423e+00  7.592118e+00
1  4.368658e+00  5.158174e+00  2.529187e+00
1  5.484048e+00  1.023451e+01  9.182655e+00
1  9.862725e+00  5.385347e+00  7.525994e+00
1  2.369741e+00  6.177551e-01  1.106604e-01
1  9.615156e+00  1.137982e+01  1.134177e+01
1  2.982350e+00  1.654558e+00  4.952324e+00
1  9.937630e+00  9.928010e+00  1.135313e+00
1  4.956678e+00  3.000997e+00  1.074509e+01
1  1.031562e+01  4.747684e+00  4.759088e+00
2  1.187805e+01  6.937461e+00  6.041657e+00
2  5.931265e+00  3.607336e+00  1.257791e+00
2  3.841757e+00  5.397856e+00  7.789741e+00
2  1.000567e+01  1.031799e+01  3.605648e+00
2  5.591578e+00  2.517728e+00  4.722440e+00
2  5.943161e+00  6.517489e+00  1.291922e+00
2  1.135425e+01  1.274122e+00  1.166216e+01
2  3.563529e+00  4.210714e+00  5.098124e+00
2  3.502202e+00  2.932855e+00  2.881943e+00
2  1.698895e+00  2.479992e+00  9.004470e+00
2  6.483187e+00  9.149135e+00  7.093399e+00
2  5.279203e+00  1.017197e+01  2.340288e+00
2  1.033253e+01  7.688581e+00  4.170332e+00
2  1.070987e+01  1.135237e+01  5.892206e+00
2  1.040547e+00  3.268829e+00  6.708152e+00
2  7.973353e+00  8.910331e+00  1.194179e+01
2  3.409881e+00  1.112400e+01  1.030185e+01
2  9.963180e+00  4.410652e+00  1.114331e+01
2  6.393501e+00  5.594632e+00  8.645876e+00
2  7.423015e-01  1.277363e+00  1.867134e+00
2  6.784400e+00  6.318386e-01  1.042577e+01
2  1.084071e+01  5.241161e+00  2.174030e+00
2  1.042125e+01  3.121240e-01  1.805229e+00
2  1.091523e+01  1.012816e+01  9.515270e+00
2  2.318797e+00  9.731526e+00  4.097578e+00
2  8.456233e+00  3.600029e+00  1.234162e+00
2  1.074250e+01  8.745055e+00  7.544014e+00
2  2.412959e+00  5.885270e+00  1.016546e+01
2  9.996662e+00  1.307911e+00  8.965857e+00
2  5.552068e+00  1.071289e+01  1.159208e+01
2  6.217827e+00  1.181335e+01  4.812210e+00
2  2.448506e+00  2.871689e+00  4.851885e-01
2  7.916265e+00  5.684201e+00  5.123350e+00
2  5.739201e+00  6.830866e+00  6.566724e+00
2  8.110708e+00  3.202917e+00  4.828228e+00
2  1.055174e+01  2.814817e+00  6.849190e+00
