ITEM: TIMESTEP
0
ITEM: NUMBER OF ATOMS
121
ITEM: BOX BOUNDS pp pp pp
0.0	1.261176e+01
0.0	1.261176e+01
0.0	1.261176e+01
ITEM: ATOMS type x y z
1  4.779311e+00  8.557638e-01  4.799479e-01
1  7.842149e+00  5.162970e+00  4.354910e+00
1  7.926553e+00  1.026435e+01  9.800508e+00
1  4.209325e+00  9.827469e+00  6.266406e+00
1  1.086132e+01  8.041373e+00  1.073721e+01
1  9.403719e+00  6.769541e+00  3.276407e+00
1  8.382631e+00  7.929289e+00  1.203726e+00
1  1.136116e+00  1.038186e+01  7.770511e+00
1  3.698410e+00  1.116062e+01  4.284142e+00
1  9.344762e+00  3.155369e+00  6.885828e-01
1  8.447045e+00  7.847309e+00  1.019340e+01
1  7.557249e+00  1.213467e+01  6.498304e+00
1  9.507766e+00  1.557837e+00  3.969201e+00
1  5.457017e+00  2.812087e+00  6.711440e+00
1  8.667158e+00  8.979943e+00  4.413044e+00
1  2.234948e+00  1.827555e+00  8.874103e+00
1  1.168088e+01  5.795324e+00  9.940506e+00
1  2.041990e+00  9.463169e+00  1.145414e+00
1  8.211360e+00  1.193482e+00  1.847085e+00
1  6.289559e+00  8.661142e+00  5.230674e+00
1  1.070709e+01  8.508350e+00  4.701433e-01
1  5.783448e+00  1.499220e+00  2.626787e+00
1  7.901137e+00  1.988322e+00  6.780243e+00
1  5.416435e+00  1.160185e+01  7.496096e+00
1  1.593401e+00  5.585699e+00  8.791410e-01
1  4.950536e+00  7.683855e+00  1.191921e+01
1  4.909106e+00  7.721107e+00  3.287650e+00
1  9.108384e+00  1.092471e+01  7.789127e+00
1  1.517366e+00  1.125535e+01  2.924618e+00
1  9.637708e+00  8.744523e+00  6.657917e+00
1  1.210726e+01  1.104611e+01  4.484131e+00
1  2.364898e+00  1.238768e+01  1.038118e+01
1  4.549484e+00  9.254140e+00  1.358962e+00
1  3.897296e+00  1.016580e+00  7.186640e+00
1  4.458527e+00  8.378079e+00  9.582286e+00
1  7.190401e+00  6.638942e+00  1.210487e+01
1  3.731800e+00  5.508756e+00  1.214294e+01
1  1.207362e+01  2.097285e+00  3.815617e+00
1  2.392404e-02  1.196327e+01  9.467246e+00
1  1.165512e+01  2.696067e+00  5.512166e-02
1  1.216605e+01  9.032911e+00  6.080474e+00
1  1.928483e+00  8.412287e+00  9.557406e+00
1  2.273388e+00  4.761992e+00  4.689268e+00
1  5.343098e-01  5.503175e-01  5.558190e+00
1  1.251416e+01  1.313287e+00  7.832008e+00
1  7.695439e+00  1.159013e+01  9.692351e-01
1  6.515577e+00  6.206531e+00  6.176728e+00
1  2.740429e+00  3.869033e+00  2.341386e+00
1  1.212541e+01  5.042356e+00  1.241033e+01
1  1.083887e+00  7.502800e+00  2.308913e+00
1  8.914828e+00  2.419233e+00  9.216463e+00
1  2.578142e+00  7.183774e+00  4.324177e+00
1  6.877188e+00  2.696298e+00  1.061101e+01
1  8.377378e+00  6.692015e+00  7.848150e+00
1  1.191322e+00  6.154924e+00  8.510666e+00
1  4.844109e+00  4.732885e+00  1.530496e+00
1  5.593124e+00  1.065692e+01  9.826734e+00
1  1.002390e+01  4.724644e+00  8.395211e+00
1  2.405329e+00  1.046734e+00  1.043987e-02
1  8.851156e+00  1.177970e+01  1.138367e+01
1  2.953791e+00  7.163237e-01  5.022515e+00
1  1.085249e+01  1.112912e+01  2.271441e-02
1  5.106322e+00  3.738143e+00  9.011899e+00
1  1.229602e+01  4.390505e+00  4.793051e+00
2  7.484109e-01  6.969986e+00  6.176323e+00
2  6.715681e+00  4.263944e+00  1.245166e+01
2  6.583234e+00  5.331435e+00  1.005042e+01
2  1.026196e+01  1.050139e+01  2.558287e+00
2  7.440172e+00  2.827136e+00  4.587680e+00
2  6.853774e+00  9.402946e+00  2.197649e+00
2  1.144660e+01  5.691442e-01  1.139664e+01
2  4.907138e+00  5.238931e+00  3.912039e+00
2  3.052976e+00  1.474101e+00  2.588241e+00
2  2.500796e+00  4.489307e+00  9.955380e+00
2  6.635704e+00  8.790017e+00  7.784772e+00
2  6.763197e+00  5.594048e-01  1.169261e+01
2  1.069191e+01  6.245262e+00  6.283749e+00
2  1.138101e+01  1.152057e+01  6.906586e+00
2  4.216752e+00  2.740535e+00  4.562138e+00
2  7.310254e+00  9.405174e+00  1.197427e+01
2  3.246010e+00  1.169937e+01  1.255709e+00
2  1.006439e+01  5.780206e+00  9.427691e-01
2  9.088765e+00  4.727979e+00  1.099218e+01
2  7.876294e-01  1.137320e+01  8.857809e-02
2  4.933774e+00  8.918574e-01  9.802355e+00
2  1.182972e+01  5.526448e+00  2.623361e+00
2  1.083742e+01  3.265152e-01  1.739068e+00
2  1.090458e+01  1.035797e+01  9.756151e+00
2  5.357830e+00  1.144863e+01  2.626610e+00
2  9.631294e+00  3.848081e+00  3.315767e+00
2  1.171916e+01  8.296811e+00  8.279099e+00
2  1.632277e+00  6.537605e+00  1.117191e+01
2  1.039401e+01  1.631909e-01  9.116737e+00
2  7.305706e+00  4.128812e-01  9.087733e+00
2  7.381414e+00  1.110970e+01  4.382450e+00
2  9.199704e+00  1.738462e+00  1.138001e+01
2  9.610094e+00  3.868699e+00  5.807760e+00
2  3.328041e+00  5.073291e+00  7.227567e+00
2  5.728258e+00  6.365500e-01  4.919697e+00
2  1.204479e+01  3.886089e+00  7.209231e+00
2  6.565794e-01  8.156805e-01  1.832761e+00
2  1.939779e+00  9.620866e+00  5.013154e+00
2  3.142019e+00  1.022455e+01  1.137666e+01
2  3.294954e+00  7.035708e+00  1.688804e+00
2  1.165915e+01  8.378084e+00  3.249572e+00
2  4.228570e+00  2.989234e+00  1.155703e+01
2  1.053819e+01  1.391824e+00  6.394374e+00
2  7.181305e+00  3.846851e+00  2.271966e+00
2  5.419497e+00  1.107501e+01  2.783585e-02
2  7.353143e+00  4.381839e+00  7.961799e+00
2  5.339658e+00  6.387750e+00  8.218884e+00
2  2.889471e-01  3.449600e+00  2.007728e+00
2  1.613022e+00  2.842668e+00  6.445983e+00
2  3.225325e+00  1.035409e+01  8.913965e+00
2  1.153045e+01  2.875617e+00  1.001032e+01
2  2.995963e+00  7.706990e+00  7.094148e+00
2  1.830358e+00  3.325709e+00  1.220155e+01
2  2.742939e+00  1.157720e+01  6.608701e+00
2  6.622818e+00  6.344889e+00  2.497231e+00
2  9.723309e+00  1.159088e+01  4.826015e+00
2  4.854509e-01  9.177173e+00  1.140764e+01
