ITEM: TIMESTEP
0
ITEM: NUMBER OF ATOMS
8
ITEM: BOX BOUNDS pp pp pp
0.0	5.468728e+00
0.0	5.468728e+00
0.0	5.468728e+00
ITEM: ATOMS id type x y z
1  1  1.367182  4.101546  1.367182
2  1  0.0  0.0  2.734364
3  1  1.367182  1.367182  4.101546
4  1  0.0  2.734364  0.0
5  1  4.101546  4.101546  4.101546
6  1  2.734364  0.0  0.0
7  1  4.101546  1.367182  1.367182
8  1  2.734364  2.734364  2.734364
