ITEM: TIMESTEP
0
ITEM: NUMBER OF ATOMS
34
ITEM: BOX BOUNDS pp pp pp
0.0	4.420735e+00
0.0	7.897987e+00
0.0	1.501155e+01
ITEM: ATOMS id type x y z
1  2  0.0  6.080826049026999  2.305203333976
2  2  0.0  2.7450401576939996  7.8874876425439995
3  2  0.0  1.2039533423059998  0.381713642544
4  2  2.2103675  5.986871595674999  6.074092644144
5  2  0.0  1.817160950973  12.706344666024
6  2  0.0  3.1965364825359996  10.421196760176
7  2  0.0  7.145529982536  12.096125239824
8  2  2.2103675  4.660799578375  11.18015060396
9  2  2.2103675  7.139116817092  9.0898676027
10  2  0.0  5.766154450973  9.810977333976
11  2  2.2103675  1.9111154043249998  8.937455355856
12  2  2.2103675  2.037878095675  1.431681355856
13  2  2.2103675  0.758870182908  5.9216803973
14  2  2.2103675  5.860108904325  13.579866644144
15  2  2.2103675  0.711806078375  11.337171396039999
16  2  0.0  2.131832549027  5.200570666024
17  2  2.2103675  3.237187421625  3.83139739604
18  2  0.0  0.0  7.505774
19  2  0.0  0.752457017464  2.915422760176
20  2  2.2103675  3.190123317092  13.4274543973
21  2  0.0  5.152946842305999  7.124060357456
22  2  0.0  6.694033657694  14.629834357456
23  2  2.2103675  7.186180921625  3.67437660396
24  2  0.0  3.9489935  0.0
25  2  2.2103675  4.707863682907999  1.5840936026999999
26  2  0.0  4.701450517464  4.590351239824
27  1  2.2103675  7.311119177978  1.033905356952
28  1  0.0  4.607338104371999  12.605872375259999
29  1  0.0  3.290648895628  2.40567562474
30  1  2.2103675  4.535861322022  8.539679356952
31  1  0.0  0.6583446043719999  9.91144962474
32  1  2.2103675  3.3621256779779998  6.4718686430479995
33  1  2.2103675  0.5868678220219999  13.977642643048
34  1  0.0  7.239642395628  5.10009837526
