ITEM: TIMESTEP
0
ITEM: NUMBER OF ATOMS
416
ITEM: BOX BOUNDS pp pp pp
0.0	1.853250e+01
0.0	1.853250e+01
0.0	1.853250e+01
ITEM: ATOMS id type x y z
1  2  14.021556746127999  1.6499110538879997  1.6499110538879997
2  2  7.616336946111999  4.755308746128  16.882584946111997
3  2  16.882584946111997  7.616336946111999  4.755308746128
4  2  1.6499110538879997  7.616336946111999  13.777187253871999
5  2  1.6499110538879997  4.5109392538719995  16.882584946111997
6  2  13.777187253871999  7.616336946111999  1.6499110538879997
7  2  4.5109392538719995  1.6499110538879997  16.882584946111997
8  2  10.916159053887998  1.6499110538879997  4.755308746128
9  2  7.616336946111999  1.6499110538879997  13.777187253871999
10  2  16.882584946111997  4.5109392538719995  1.6499110538879997
11  2  10.916159053887998  4.755308746128  1.6499110538879997
12  2  4.755308746128  7.616336946111999  16.882584946111997
13  2  5.002902892688  1.7639229692799998  1.7639229692799998
14  2  16.76857303072  5.002902892688  16.76857303072
15  2  16.76857303072  7.50232503072  14.269150892687998
16  2  1.7639229692799998  7.50232503072  4.2633451073119994
17  2  11.03017096928  4.2633451073119994  16.76857303072
18  2  4.2633451073119994  7.50232503072  1.7639229692799998
19  2  13.529593107312  1.7639229692799998  16.76857303072
20  2  11.03017096928  1.7639229692799998  14.269150892687998
21  2  0.9781451388799999  8.288102861119999  8.288102861119999
22  2  0.9781451388799999  0.9781451388799999  0.9781451388799999
23  2  8.288102861119999  8.288102861119999  0.9781451388799999
24  2  8.288102861119999  0.9781451388799999  8.288102861119999
25  2  3.1214838987679996  6.144764101231999  6.144764101231999
26  2  3.1214838987679996  3.1214838987679996  3.1214838987679996
27  2  6.144764101231999  6.144764101231999  3.1214838987679996
28  2  6.144764101231999  3.1214838987679996  6.144764101231999
29  2  5.689476271999999  3.5767717279999998  3.5767717279999998
30  2  5.689476271999999  5.689476271999999  5.689476271999999
31  2  3.5767717279999998  3.5767717279999998  5.689476271999999
32  2  3.5767717279999998  5.689476271999999  3.5767717279999998
33  2  8.084597522544  1.181650477456  1.181650477456
34  2  17.350845522544  8.084597522544  17.350845522544
35  2  10.447898477455999  1.181650477456  17.350845522544
36  2  1.181650477456  8.084597522544  1.181650477456
37  2  1.484656787056  7.781591212944  17.047839212943998
38  2  10.750904787056  1.484656787056  1.484656787056
39  2  17.047839212943998  7.781591212944  1.484656787056
40  2  7.781591212944  1.484656787056  17.047839212943998
41  2  5.672500505664  3.5937474943359997  12.859995494335998
42  2  5.672500505664  5.672500505664  14.938748505664
43  2  3.5937474943359997  3.5937474943359997  14.938748505664
44  2  3.5937474943359997  5.672500505664  12.859995494335998
45  2  9.266248  6.017038138799999  0.0
46  2  3.2492098611999998  0.0  0.0
47  2  15.2832861388  0.0  0.0
48  2  0.0  3.2492098611999998  0.0
49  2  9.266248  0.0  6.017038138799999
50  2  9.266248  0.0  12.515457861199998
51  2  4.633124  7.83479800896  13.899372
52  2  1.43144999104  4.633124  13.899372
53  2  7.83479800896  4.633124  13.899372
54  2  4.633124  1.43144999104  13.899372
55  2  4.633124  4.633124  17.101046008959997
56  2  4.633124  4.633124  10.697697991039998
57  2  0.23630785649599997  2.947371098848  2.947371098848
58  2  6.318876901152  0.23630785649599997  6.318876901152
59  2  2.947371098848  9.029940143504  6.318876901152
60  2  2.947371098848  6.318876901152  9.029940143504
61  2  6.318876901152  6.318876901152  0.23630785649599997
62  2  9.029940143504  6.318876901152  2.947371098848
63  2  9.029940143504  2.947371098848  6.318876901152
64  2  6.318876901152  9.029940143504  2.947371098848
65  2  6.318876901152  2.947371098848  9.029940143504
66  2  2.947371098848  2.947371098848  0.23630785649599997
67  2  2.947371098848  0.23630785649599997  2.947371098848
68  2  0.23630785649599997  6.318876901152  6.318876901152
69  2  0.20800873510399998  6.310398284231999  15.576646284231998
70  2  12.222097715768  0.20800873510399998  2.955849715768
71  2  15.576646284231998  9.058239264895999  2.955849715768
72  2  6.310398284231999  2.955849715768  18.324487264896
73  2  12.222097715768  2.955849715768  0.20800873510399998
74  2  9.058239264895999  2.955849715768  15.576646284231998
75  2  18.324487264896  6.310398284231999  2.955849715768
76  2  2.955849715768  9.058239264895999  15.576646284231998
77  2  2.955849715768  6.310398284231999  18.324487264896
78  2  15.576646284231998  6.310398284231999  0.20800873510399998
79  2  6.310398284231999  0.20800873510399998  15.576646284231998
80  2  9.474256735104  2.955849715768  2.955849715768
81  2  14.269150892687998  7.50232503072  16.76857303072
82  2  1.7639229692799998  5.002902892688  1.7639229692799998
83  2  7.50232503072  4.2633451073119994  1.7639229692799998
84  2  7.50232503072  1.7639229692799998  4.2633451073119994
85  2  14.021556746127999  10.916159053887998  10.916159053887998
86  2  7.616336946111999  14.021556746127999  7.616336946111999
87  2  16.882584946111997  16.882584946111997  14.021556746127999
88  2  1.6499110538879997  16.882584946111997  4.5109392538719995
89  2  1.6499110538879997  13.777187253871999  7.616336946111999
90  2  13.777187253871999  16.882584946111997  10.916159053887998
91  2  4.5109392538719995  10.916159053887998  7.616336946111999
92  2  10.916159053887998  10.916159053887998  14.021556746127999
93  2  7.616336946111999  10.916159053887998  4.5109392538719995
94  2  16.882584946111997  13.777187253871999  10.916159053887998
95  2  10.916159053887998  14.021556746127999  10.916159053887998
96  2  4.755308746128  16.882584946111997  7.616336946111999
97  2  5.002902892688  11.03017096928  11.03017096928
98  2  16.76857303072  14.269150892687998  7.50232503072
99  2  16.76857303072  16.76857303072  5.002902892688
100  2  1.7639229692799998  16.76857303072  13.529593107312
101  2  11.03017096928  13.529593107312  7.50232503072
102  2  4.2633451073119994  16.76857303072  11.03017096928
103  2  13.529593107312  11.03017096928  7.50232503072
104  2  11.03017096928  11.03017096928  5.002902892688
105  2  0.9781451388799999  17.554350861119996  17.554350861119996
106  2  0.9781451388799999  10.24439313888  10.24439313888
107  2  8.288102861119999  17.554350861119996  10.24439313888
108  2  8.288102861119999  10.24439313888  17.554350861119996
109  2  3.1214838987679996  15.411012101231998  15.411012101231998
110  2  3.1214838987679996  12.387731898768  12.387731898768
111  2  6.144764101231999  15.411012101231998  12.387731898768
112  2  6.144764101231999  12.387731898768  15.411012101231998
113  2  5.689476271999999  12.843019727999998  12.843019727999998
114  2  5.689476271999999  14.955724272  14.955724272
115  2  3.5767717279999998  12.843019727999998  14.955724272
116  2  3.5767717279999998  14.955724272  12.843019727999998
117  2  8.084597522544  10.447898477455999  10.447898477455999
118  2  17.350845522544  17.350845522544  8.084597522544
119  2  10.447898477455999  10.447898477455999  8.084597522544
120  2  1.181650477456  17.350845522544  10.447898477455999
121  2  1.484656787056  17.047839212943998  7.781591212944
122  2  10.750904787056  10.750904787056  10.750904787056
123  2  17.047839212943998  17.047839212943998  10.750904787056
124  2  7.781591212944  10.750904787056  7.781591212944
125  2  5.672500505664  12.859995494335998  3.5937474943359997
126  2  5.672500505664  14.938748505664  5.672500505664
127  2  3.5937474943359997  12.859995494335998  5.672500505664
128  2  3.5937474943359997  14.938748505664  3.5937474943359997
129  2  9.266248  15.2832861388  9.266248
130  2  3.2492098611999998  9.266248  9.266248
131  2  15.2832861388  9.266248  9.266248
132  2  0.0  12.515457861199998  9.266248
133  2  9.266248  9.266248  15.2832861388
134  2  9.266248  9.266248  3.2492098611999998
135  2  4.633124  17.101046008959997  4.633124
136  2  1.43144999104  13.899372  4.633124
137  2  7.83479800896  13.899372  4.633124
138  2  4.633124  10.697697991039998  4.633124
139  2  4.633124  13.899372  7.83479800896
140  2  4.633124  13.899372  1.43144999104
141  2  0.23630785649599997  12.213619098848  12.213619098848
142  2  6.318876901152  9.502555856495999  15.585124901151998
143  2  2.947371098848  18.296188143504  15.585124901151998
144  2  2.947371098848  15.585124901151998  18.296188143504
145  2  6.318876901152  15.585124901151998  9.502555856495999
146  2  9.029940143504  15.585124901151998  12.213619098848
147  2  9.029940143504  12.213619098848  15.585124901151998
148  2  6.318876901152  18.296188143504  12.213619098848
149  2  6.318876901152  12.213619098848  18.296188143504
150  2  2.947371098848  12.213619098848  9.502555856495999
151  2  2.947371098848  9.502555856495999  12.213619098848
152  2  0.23630785649599997  15.585124901151998  15.585124901151998
153  2  0.20800873510399998  15.576646284231998  6.310398284231999
154  2  12.222097715768  9.474256735104  12.222097715768
155  2  15.576646284231998  18.324487264896  12.222097715768
156  2  6.310398284231999  12.222097715768  9.058239264895999
157  2  12.222097715768  12.222097715768  9.474256735104
158  2  9.058239264895999  12.222097715768  6.310398284231999
159  2  18.324487264896  15.576646284231998  12.222097715768
160  2  2.955849715768  18.324487264896  6.310398284231999
161  2  2.955849715768  15.576646284231998  9.058239264895999
162  2  15.576646284231998  15.576646284231998  9.474256735104
163  2  6.310398284231999  9.474256735104  6.310398284231999
164  2  9.474256735104  12.222097715768  12.222097715768
165  2  14.269150892687998  16.76857303072  7.50232503072
166  2  1.7639229692799998  14.269150892687998  11.03017096928
167  2  7.50232503072  13.529593107312  11.03017096928
168  2  7.50232503072  11.03017096928  13.529593107312
169  2  4.755308746128  1.6499110538879997  10.916159053887998
170  2  16.882584946111997  4.755308746128  7.616336946111999
171  2  7.616336946111999  7.616336946111999  14.021556746127999
172  2  10.916159053887998  7.616336946111999  4.5109392538719995
173  2  10.916159053887998  4.5109392538719995  7.616336946111999
174  2  4.5109392538719995  7.616336946111999  10.916159053887998
175  2  13.777187253871999  1.6499110538879997  7.616336946111999
176  2  1.6499110538879997  1.6499110538879997  14.021556746127999
177  2  16.882584946111997  1.6499110538879997  4.5109392538719995
178  2  7.616336946111999  4.5109392538719995  10.916159053887998
179  2  1.6499110538879997  4.755308746128  10.916159053887998
180  2  14.021556746127999  7.616336946111999  7.616336946111999
181  2  14.269150892687998  1.7639229692799998  11.03017096928
182  2  7.50232503072  5.002902892688  7.50232503072
183  2  7.50232503072  7.50232503072  5.002902892688
184  2  11.03017096928  7.50232503072  13.529593107312
185  2  1.7639229692799998  4.2633451073119994  7.50232503072
186  2  13.529593107312  7.50232503072  11.03017096928
187  2  4.2633451073119994  1.7639229692799998  7.50232503072
188  2  1.7639229692799998  1.7639229692799998  5.002902892688
189  2  10.24439313888  8.288102861119999  17.554350861119996
190  2  10.24439313888  0.9781451388799999  10.24439313888
191  2  17.554350861119996  8.288102861119999  10.24439313888
192  2  17.554350861119996  0.9781451388799999  17.554350861119996
193  2  12.387731898768  6.144764101231999  15.411012101231998
194  2  12.387731898768  3.1214838987679996  12.387731898768
195  2  15.411012101231998  6.144764101231999  12.387731898768
196  2  15.411012101231998  3.1214838987679996  15.411012101231998
197  2  14.955724272  3.5767717279999998  12.843019727999998
198  2  14.955724272  5.689476271999999  14.955724272
199  2  12.843019727999998  3.5767717279999998  14.955724272
200  2  12.843019727999998  5.689476271999999  12.843019727999998
201  2  17.350845522544  1.181650477456  10.447898477455999
202  2  8.084597522544  8.084597522544  8.084597522544
203  2  1.181650477456  1.181650477456  8.084597522544
204  2  10.447898477455999  8.084597522544  10.447898477455999
205  2  10.750904787056  7.781591212944  7.781591212944
206  2  1.484656787056  1.484656787056  10.750904787056
207  2  7.781591212944  7.781591212944  10.750904787056
208  2  17.047839212943998  1.484656787056  7.781591212944
209  2  14.938748505664  3.5937474943359997  3.5937474943359997
210  2  14.938748505664  5.672500505664  5.672500505664
211  2  12.859995494335998  3.5937474943359997  5.672500505664
212  2  12.859995494335998  5.672500505664  3.5937474943359997
213  2  0.0  6.017038138799999  9.266248
214  2  12.515457861199998  0.0  9.266248
215  2  6.017038138799999  0.0  9.266248
216  2  9.266248  3.2492098611999998  9.266248
217  2  0.0  0.0  15.2832861388
218  2  0.0  0.0  3.2492098611999998
219  2  13.899372  7.83479800896  4.633124
220  2  10.697697991039998  4.633124  4.633124
221  2  17.101046008959997  4.633124  4.633124
222  2  13.899372  1.43144999104  4.633124
223  2  13.899372  4.633124  7.83479800896
224  2  13.899372  4.633124  1.43144999104
225  2  9.502555856495999  2.947371098848  12.213619098848
226  2  15.585124901151998  0.23630785649599997  15.585124901151998
227  2  12.213619098848  9.029940143504  15.585124901151998
228  2  12.213619098848  6.318876901152  18.296188143504
229  2  15.585124901151998  6.318876901152  9.502555856495999
230  2  18.296188143504  6.318876901152  12.213619098848
231  2  18.296188143504  2.947371098848  15.585124901151998
232  2  15.585124901151998  9.029940143504  12.213619098848
233  2  15.585124901151998  2.947371098848  18.296188143504
234  2  12.213619098848  2.947371098848  9.502555856495999
235  2  12.213619098848  0.23630785649599997  12.213619098848
236  2  9.502555856495999  6.318876901152  15.585124901151998
237  2  9.474256735104  6.310398284231999  6.310398284231999
238  2  2.955849715768  0.20800873510399998  12.222097715768
239  2  6.310398284231999  9.058239264895999  12.222097715768
240  2  15.576646284231998  2.955849715768  9.058239264895999
241  2  2.955849715768  2.955849715768  9.474256735104
242  2  18.324487264896  2.955849715768  6.310398284231999
243  2  9.058239264895999  6.310398284231999  12.222097715768
244  2  12.222097715768  9.058239264895999  6.310398284231999
245  2  12.222097715768  6.310398284231999  9.058239264895999
246  2  6.310398284231999  6.310398284231999  9.474256735104
247  2  15.576646284231998  0.20800873510399998  6.310398284231999
248  2  0.20800873510399998  2.955849715768  12.222097715768
249  2  5.002902892688  7.50232503072  7.50232503072
250  2  11.03017096928  5.002902892688  11.03017096928
251  2  16.76857303072  4.2633451073119994  11.03017096928
252  2  16.76857303072  1.7639229692799998  13.529593107312
253  2  4.755308746128  10.916159053887998  1.6499110538879997
254  2  16.882584946111997  14.021556746127999  16.882584946111997
255  2  7.616336946111999  16.882584946111997  4.755308746128
256  2  10.916159053887998  16.882584946111997  13.777187253871999
257  2  10.916159053887998  13.777187253871999  16.882584946111997
258  2  4.5109392538719995  16.882584946111997  1.6499110538879997
259  2  13.777187253871999  10.916159053887998  16.882584946111997
260  2  1.6499110538879997  10.916159053887998  4.755308746128
261  2  16.882584946111997  10.916159053887998  13.777187253871999
262  2  7.616336946111999  13.777187253871999  1.6499110538879997
263  2  1.6499110538879997  14.021556746127999  1.6499110538879997
264  2  14.021556746127999  16.882584946111997  16.882584946111997
265  2  14.269150892687998  11.03017096928  1.7639229692799998
266  2  7.50232503072  14.269150892687998  16.76857303072
267  2  7.50232503072  16.76857303072  14.269150892687998
268  2  11.03017096928  16.76857303072  4.2633451073119994
269  2  1.7639229692799998  13.529593107312  16.76857303072
270  2  13.529593107312  16.76857303072  1.7639229692799998
271  2  4.2633451073119994  11.03017096928  16.76857303072
272  2  1.7639229692799998  11.03017096928  14.269150892687998
273  2  10.24439313888  17.554350861119996  8.288102861119999
274  2  10.24439313888  10.24439313888  0.9781451388799999
275  2  17.554350861119996  17.554350861119996  0.9781451388799999
276  2  17.554350861119996  10.24439313888  8.288102861119999
277  2  12.387731898768  15.411012101231998  6.144764101231999
278  2  12.387731898768  12.387731898768  3.1214838987679996
279  2  15.411012101231998  15.411012101231998  3.1214838987679996
280  2  15.411012101231998  12.387731898768  6.144764101231999
281  2  14.955724272  12.843019727999998  3.5767717279999998
282  2  14.955724272  14.955724272  5.689476271999999
283  2  12.843019727999998  12.843019727999998  5.689476271999999
284  2  12.843019727999998  14.955724272  3.5767717279999998
285  2  17.350845522544  10.447898477455999  1.181650477456
286  2  8.084597522544  17.350845522544  17.350845522544
287  2  1.181650477456  10.447898477455999  17.350845522544
288  2  10.447898477455999  17.350845522544  1.181650477456
289  2  10.750904787056  17.047839212943998  17.047839212943998
290  2  1.484656787056  10.750904787056  1.484656787056
291  2  7.781591212944  17.047839212943998  1.484656787056
292  2  17.047839212943998  10.750904787056  17.047839212943998
293  2  14.938748505664  12.859995494335998  12.859995494335998
294  2  14.938748505664  14.938748505664  14.938748505664
295  2  12.859995494335998  12.859995494335998  14.938748505664
296  2  12.859995494335998  14.938748505664  12.859995494335998
297  2  0.0  15.2832861388  0.0
298  2  12.515457861199998  9.266248  0.0
299  2  6.017038138799999  9.266248  0.0
300  2  9.266248  12.515457861199998  0.0
301  2  0.0  9.266248  6.017038138799999
302  2  0.0  9.266248  12.515457861199998
303  2  13.899372  17.101046008959997  13.899372
304  2  10.697697991039998  13.899372  13.899372
305  2  17.101046008959997  13.899372  13.899372
306  2  13.899372  10.697697991039998  13.899372
307  2  13.899372  13.899372  17.101046008959997
308  2  13.899372  13.899372  10.697697991039998
309  2  9.502555856495999  12.213619098848  2.947371098848
310  2  15.585124901151998  9.502555856495999  6.318876901152
311  2  12.213619098848  18.296188143504  6.318876901152
312  2  12.213619098848  15.585124901151998  9.029940143504
313  2  15.585124901151998  15.585124901151998  0.23630785649599997
314  2  18.296188143504  15.585124901151998  2.947371098848
315  2  18.296188143504  12.213619098848  6.318876901152
316  2  15.585124901151998  18.296188143504  2.947371098848
317  2  15.585124901151998  12.213619098848  9.029940143504
318  2  12.213619098848  12.213619098848  0.23630785649599997
319  2  12.213619098848  9.502555856495999  2.947371098848
320  2  9.502555856495999  15.585124901151998  6.318876901152
321  2  9.474256735104  15.576646284231998  15.576646284231998
322  2  2.955849715768  9.474256735104  2.955849715768
323  2  6.310398284231999  18.324487264896  2.955849715768
324  2  15.576646284231998  12.222097715768  18.324487264896
325  2  2.955849715768  12.222097715768  0.20800873510399998
326  2  18.324487264896  12.222097715768  15.576646284231998
327  2  9.058239264895999  15.576646284231998  2.955849715768
328  2  12.222097715768  18.324487264896  15.576646284231998
329  2  12.222097715768  15.576646284231998  18.324487264896
330  2  6.310398284231999  15.576646284231998  0.20800873510399998
331  2  15.576646284231998  9.474256735104  15.576646284231998
332  2  0.20800873510399998  12.222097715768  2.955849715768
333  2  5.002902892688  16.76857303072  16.76857303072
334  2  11.03017096928  14.269150892687998  1.7639229692799998
335  2  16.76857303072  13.529593107312  1.7639229692799998
336  2  16.76857303072  11.03017096928  4.2633451073119994
337  1  4.633124  4.633124  1.332634722368
338  1  4.633124  4.633124  7.9336132776319985
339  1  4.633124  1.332634722368  4.633124
340  1  7.9336132776319985  4.633124  4.633124
341  1  1.332634722368  4.633124  4.633124
342  1  4.633124  7.9336132776319985  4.633124
343  1  9.266248  0.0  15.20007523176
344  1  9.266248  0.0  3.3324207682399996
345  1  0.0  5.93382723176  0.0
346  1  12.598668768239998  0.0  0.0
347  1  5.93382723176  0.0  0.0
348  1  9.266248  3.3324207682399996  0.0
349  1  6.210165279616  3.0560827203839995  15.476413279615997
350  1  15.476413279615997  6.210165279616  3.0560827203839995
351  1  12.322330720384  3.0560827203839995  3.0560827203839995
352  1  3.0560827203839995  6.210165279616  15.476413279615997
353  1  1.6648482456639997  7.601399754335999  10.931096245663998
354  1  1.6648482456639997  1.6648482456639997  16.867647754335998
355  1  7.601399754335999  7.601399754335999  16.867647754335998
356  1  7.601399754335999  1.6648482456639997  10.931096245663998
357  1  4.633124  13.899372  10.598882722367998
358  1  4.633124  13.899372  17.199861277632
359  1  4.633124  10.598882722367998  13.899372
360  1  7.9336132776319985  13.899372  13.899372
361  1  1.332634722368  13.899372  13.899372
362  1  4.633124  17.199861277632  13.899372
363  1  9.266248  9.266248  5.93382723176
364  1  9.266248  9.266248  12.598668768239998
365  1  0.0  15.20007523176  9.266248
366  1  12.598668768239998  9.266248  9.266248
367  1  5.93382723176  9.266248  9.266248
368  1  9.266248  12.598668768239998  9.266248
369  1  6.210165279616  12.322330720384  6.210165279616
370  1  15.476413279615997  15.476413279615997  12.322330720384
371  1  12.322330720384  12.322330720384  12.322330720384
372  1  3.0560827203839995  15.476413279615997  6.210165279616
373  1  1.6648482456639997  16.867647754335998  1.6648482456639997
374  1  1.6648482456639997  10.931096245663998  7.601399754335999
375  1  7.601399754335999  16.867647754335998  7.601399754335999
376  1  7.601399754335999  10.931096245663998  1.6648482456639997
377  1  13.899372  4.633124  10.598882722367998
378  1  13.899372  4.633124  17.199861277632
379  1  13.899372  1.332634722368  13.899372
380  1  17.199861277632  4.633124  13.899372
381  1  10.598882722367998  4.633124  13.899372
382  1  13.899372  7.9336132776319985  13.899372
383  1  0.0  0.0  5.93382723176
384  1  0.0  0.0  12.598668768239998
385  1  9.266248  5.93382723176  9.266248
386  1  3.3324207682399996  0.0  9.266248
387  1  15.20007523176  0.0  9.266248
388  1  0.0  3.3324207682399996  9.266248
389  1  15.476413279615997  3.0560827203839995  6.210165279616
390  1  6.210165279616  6.210165279616  12.322330720384
391  1  3.0560827203839995  3.0560827203839995  12.322330720384
392  1  12.322330720384  6.210165279616  6.210165279616
393  1  10.931096245663998  7.601399754335999  1.6648482456639997
394  1  10.931096245663998  1.6648482456639997  7.601399754335999
395  1  16.867647754335998  7.601399754335999  7.601399754335999
396  1  16.867647754335998  1.6648482456639997  1.6648482456639997
397  1  13.899372  13.899372  1.332634722368
398  1  13.899372  13.899372  7.9336132776319985
399  1  13.899372  10.598882722367998  4.633124
400  1  17.199861277632  13.899372  4.633124
401  1  10.598882722367998  13.899372  4.633124
402  1  13.899372  17.199861277632  4.633124
403  1  0.0  9.266248  15.20007523176
404  1  0.0  9.266248  3.3324207682399996
405  1  9.266248  15.20007523176  0.0
406  1  3.3324207682399996  9.266248  0.0
407  1  15.20007523176  9.266248  0.0
408  1  0.0  12.598668768239998  0.0
409  1  15.476413279615997  12.322330720384  15.476413279615997
410  1  6.210165279616  15.476413279615997  3.0560827203839995
411  1  3.0560827203839995  12.322330720384  3.0560827203839995
412  1  12.322330720384  15.476413279615997  15.476413279615997
413  1  10.931096245663998  16.867647754335998  10.931096245663998
414  1  10.931096245663998  10.931096245663998  16.867647754335998
415  1  16.867647754335998  16.867647754335998  16.867647754335998
416  1  16.867647754335998  10.931096245663998  10.931096245663998
