ITEM: TIMESTEP
0
ITEM: NUMBER OF ATOMS
32
ITEM: BOX BOUNDS pp pp pp
0.0	9.327158e+00
0.0	9.327158e+00
0.0	5.740710e+00
ITEM: ATOMS id type x y z
1  2  5.418784992523  1.264030442897  5.335005413235
2  2  8.063127557103002  0.755205992523  3.8998279132349998
3  2  1.264030442897  8.571952007477  3.8998279132349998
4  2  3.9083730074770004  8.063127557103002  5.335005413235
5  2  3.9083730074770004  3.399548557103  4.711237086765
6  2  5.927609442897  8.571952007477  3.276059586765
7  2  3.399548557103  0.755205992523  3.276059586765
8  2  5.418784992523  5.927609442897  4.711237086765
9  2  0.755205992523  5.927609442897  2.464650413235
10  2  3.399548557103  5.418784992523  1.029472913235
11  2  5.927609442897  3.9083730074770004  1.029472913235
12  2  8.571952007477  3.399548557103  2.464650413235
13  2  8.571952007477  8.063127557103002  1.840882086765
14  2  1.264030442897  3.9083730074770004  0.405704586765
15  2  8.063127557103002  5.418784992523  0.405704586765
16  2  0.755205992523  1.264030442897  1.840882086765
17  1  5.695904183861001  1.890227849543  2.695966581975
18  1  7.436930150457001  1.0323251838610001  1.260789081975
19  1  1.890227849543  8.294832816139  1.260789081975
20  1  3.6312538161390004  7.436930150457001  2.695966581975
21  1  3.6312538161390004  2.773351150457  1.609565918025
22  1  6.553806849543  8.294832816139  0.17438841802500002
23  1  2.773351150457  1.0323251838610001  0.17438841802500002
24  1  5.695904183861001  6.553806849543  1.609565918025
25  1  1.0323251838610001  6.553806849543  5.566321581975
26  1  2.773351150457  5.695904183861001  4.131144081975
27  1  6.553806849543  3.6312538161390004  4.131144081975
28  1  8.294832816139  2.773351150457  5.566321581975
29  1  8.294832816139  7.436930150457001  4.479920918025
30  1  1.890227849543  3.6312538161390004  3.0447434180249995
31  1  7.436930150457001  5.695904183861001  3.0447434180249995
32  1  1.0323251838610001  1.890227849543  4.479920918025
