ITEM: TIMESTEP
0
ITEM: NUMBER OF ATOMS
76
ITEM: BOX BOUNDS pp pp pp
0.0	1.056605e+01
0.0	1.056605e+01
0.0	1.056605e+01
ITEM: ATOMS id type x y z
1  2  6.2982891372  1.3411326235680001  2.255233134192
2  2  7.924536  1.320756  0.0
3  2  2.255233134192  6.2982891372  1.3411326235680001
4  2  3.9418913764320003  2.255233134192  4.2677588628
5  2  8.310814865808  9.5507828628  1.3411326235680001
6  2  1.6262468628000002  10.179769134192  1.300379376432
7  2  9.5507828628  1.3411326235680001  8.310814865808
8  2  10.179769134192  1.300379376432  1.6262468628000002
9  2  3.982644623568  1.6262468628000002  0.386278865808
10  2  2.255233134192  4.2677588628  3.9418913764320003
11  2  1.3411326235680001  8.310814865808  9.5507828628
12  2  0.386278865808  3.982644623568  1.6262468628000002
13  2  0.0  2.641512  3.962268
14  2  3.027790865808  6.2982891372  9.224915376432
15  2  0.0  7.924536  1.320756
16  2  0.386278865808  6.583403376432  3.6567771372
17  2  1.6262468628000002  0.386278865808  3.982644623568
18  2  1.300379376432  1.6262468628000002  10.179769134192
19  2  3.982644623568  8.9398011372  4.896745134192
20  2  1.320756  0.0  7.924536
21  2  9.224915376432  3.027790865808  6.2982891372
22  2  4.2677588628  3.9418913764320003  2.255233134192
23  2  6.583403376432  3.6567771372  0.386278865808
24  2  1.3411326235680001  2.255233134192  6.2982891372
25  2  3.6567771372  0.386278865808  6.583403376432
26  2  6.2982891372  9.224915376432  3.027790865808
27  2  4.896745134192  3.982644623568  8.9398011372
28  2  2.641512  3.962268  0.0
29  2  8.9398011372  4.896745134192  3.982644623568
30  2  3.962268  0.0  2.641512
31  2  1.0152651372000001  6.624156623568  7.5382571341919995
32  2  2.641512  6.60378  5.283024
33  2  7.5382571341919995  1.0152651372000001  6.624156623568
34  2  9.224915376432  7.5382571341919995  9.5507828628
35  2  3.027790865808  4.2677588628  6.624156623568
36  2  6.909270862800001  4.896745134192  6.583403376432
37  2  4.2677588628  6.624156623568  3.027790865808
38  2  4.896745134192  6.583403376432  6.909270862800001
39  2  9.265668623568  6.909270862800001  5.6693028658080005
40  2  7.5382571341919995  9.5507828628  9.224915376432
41  2  6.624156623568  3.027790865808  4.2677588628
42  2  5.6693028658080005  9.265668623568  6.909270862800001
43  2  5.283024  7.924536  9.245292000000001
44  2  8.310814865808  1.0152651372000001  3.9418913764320003
45  2  5.283024  2.641512  6.60378
46  2  5.6693028658080005  1.300379376432  8.9398011372
47  2  6.909270862800001  5.6693028658080005  9.265668623568
48  2  6.583403376432  6.909270862800001  4.896745134192
49  2  9.265668623568  3.6567771372  10.179769134192
50  2  6.60378  5.283024  2.641512
51  2  3.9418913764320003  8.310814865808  1.0152651372000001
52  2  9.5507828628  9.224915376432  7.5382571341919995
53  2  1.300379376432  8.9398011372  5.6693028658080005
54  2  6.624156623568  7.5382571341919995  1.0152651372000001
55  2  8.9398011372  5.6693028658080005  1.300379376432
56  2  1.0152651372000001  3.9418913764320003  8.310814865808
57  2  10.179769134192  9.265668623568  3.6567771372
58  2  7.924536  9.245292000000001  5.283024
59  2  3.6567771372  10.179769134192  9.265668623568
60  2  9.245292000000001  5.283024  7.924536
61  1  0.448296284544  5.731320284544  10.117751715456
62  1  10.117751715456  0.448296284544  5.731320284544
63  1  8.372832284544  3.0898082845440005  2.193215715456
64  1  3.0898082845440005  2.193215715456  8.372832284544
65  1  5.731320284544  10.117751715456  0.448296284544
66  1  2.193215715456  8.372832284544  3.0898082845440005
67  1  2.193215715456  2.193215715456  2.193215715456
68  1  4.834727715456  4.834727715456  4.834727715456
69  1  5.731320284544  0.448296284544  4.834727715456
70  1  4.834727715456  5.731320284544  0.448296284544
71  1  3.0898082845440005  8.372832284544  7.476239715456
72  1  8.372832284544  7.476239715456  3.0898082845440005
73  1  0.448296284544  4.834727715456  5.731320284544
74  1  7.476239715456  3.0898082845440005  8.372832284544
75  1  7.476239715456  7.476239715456  7.476239715456
76  1  10.117751715456  10.117751715456  10.117751715456
