ITEM: TIMESTEP
0
ITEM: NUMBER OF ATOMS
152
ITEM: BOX BOUNDS pp pp pp
0.0	8.531238e+00
0.0	1.431268e+01
0.0	1.962266e+01
ITEM: ATOMS id type x y z
1  2  5.645555277738  11.938895064936  14.716996499999999
2  2  1.379936277738  9.530127935064  14.716996499999999
3  2  7.151301722262001  4.782554064936  4.9056655
4  2  2.885682722262  2.373786935064  4.9056655
5  2  5.230331393039999  9.034021751580001  14.716996499999999
6  2  0.96471239304  12.43500124842  14.716996499999999
7  2  7.566525606960001  1.87768075158  4.9056655
8  2  3.30090660696  5.2786602484200005  4.9056655
9  2  4.233874263402  6.761797607988001  12.264163749999998
10  2  8.499493263402  0.394543392012  17.16982925
11  2  0.031744736598  13.918138607988  7.358498249999999
12  2  4.297363736598  7.550884392012  2.45283275
13  2  4.297363736598  7.550884392012  7.358498249999999
14  2  0.031744736598  13.918138607988  2.45283275
15  2  8.499493263402  0.394543392012  12.264163749999998
16  2  4.233874263402  6.761797607988001  17.16982925
17  2  7.187064671958  7.083503761302  12.002299325609998
18  2  2.921445671958  0.072837238698  17.43169367439
19  2  5.609792328042  14.239844761302  7.620362674389999
20  2  1.344173328042  7.229178238698  2.19096832561
21  2  1.344173328042  7.229178238698  7.620362674389999
22  2  5.609792328042  14.239844761302  2.19096832561
23  2  2.921445671958  0.072837238698  12.002299325609998
24  2  7.187064671958  7.083503761302  17.43169367439
25  2  7.48279150599  9.440487607698  16.372226907686
26  2  3.2171725059900003  12.028535392302  13.061766092313999
27  2  5.31406549401  2.284146607698  3.2504350923139995
28  2  1.04844649401  4.872194392302  6.560895907686
29  2  1.04844649401  4.872194392302  3.2504350923139995
30  2  5.31406549401  2.284146607698  6.560895907686
31  2  3.2171725059900003  12.028535392302  16.372226907686
32  2  7.48279150599  9.440487607698  13.061766092313999
33  2  3.160303273482  13.372610733558  0.545568871586
34  2  7.425922273482  8.096412266442  9.265762128413998
35  2  1.105315726518  6.216269733558001  19.077093128414
36  2  5.3709347265180005  0.9400712664420001  10.356899871586
37  2  5.3709347265180005  0.9400712664420001  19.077093128414
38  2  1.105315726518  6.216269733558001  10.356899871586
39  2  7.425922273482  8.096412266442  0.545568871586
40  2  3.160303273482  13.372610733558  9.265762128413998
41  2  5.378365434816  3.7711627040880003  17.411207615261997
42  2  1.1127464348159999  3.385178295912  12.022785384737999
43  2  7.418491565184  10.927503704088002  2.2114543847379995
44  2  3.152872565184  10.541519295912  7.599876615262
45  2  3.152872565184  10.541519295912  2.2114543847379995
46  2  7.418491565184  10.927503704088002  7.599876615262
47  2  1.1127464348159999  3.385178295912  17.411207615261997
48  2  5.378365434816  3.7711627040880003  12.022785384737999
49  2  3.12976997268  8.120414634156  0.09524840134799999
50  2  7.39538897268  13.348608365844001  9.716082598652
51  2  1.1358490273200001  0.964073634156  19.527413598651997
52  2  5.40146802732  6.192267365844001  9.906579401347999
53  2  5.40146802732  6.192267365844001  19.527413598651997
54  2  1.1358490273200001  0.964073634156  9.906579401347999
55  2  7.39538897268  13.348608365844001  0.09524840134799999
56  2  3.12976997268  8.120414634156  9.716082598652
57  2  3.172101975636  9.143499456198  16.776139782294
58  2  7.437720975636  12.325523543802  12.657853217706
59  2  1.093517024364  1.987158456198  2.8465222177059997
60  2  5.359136024364  5.169182543802  6.964808782293999
61  2  5.359136024364  5.169182543802  2.8465222177059997
62  2  1.093517024364  1.987158456198  6.964808782293999
63  2  7.437720975636  12.325523543802  16.776139782294
64  2  3.172101975636  9.143499456198  12.657853217706
65  2  7.426365897858  10.643883597576  19.00317456066
66  2  3.160746897858  10.825139402424  10.43081843934
67  2  5.370491102142  3.487542597576  0.61948743934
68  2  1.104872102142  3.668798402424  9.191843560659999
69  2  1.104872102142  3.668798402424  0.61948743934
70  2  5.370491102142  3.487542597576  9.191843560659999
71  2  3.160746897858  10.825139402424  19.00317456066
72  2  7.426365897858  10.643883597576  10.43081843934
73  2  1.1765856887700001  6.839300781018  13.173948850967998
74  2  5.44220468877  0.317040218982  16.260044149031998
75  2  3.08903331123  13.995641781018  6.448713149031999
76  2  7.35465231123  7.473381218982  3.3626178509679994
77  2  7.35465231123  7.473381218982  6.448713149031999
78  2  3.08903331123  13.995641781018  3.3626178509679994
79  2  5.44220468877  0.317040218982  13.173948850967998
80  2  1.1765856887700001  6.839300781018  16.260044149031998
81  2  7.359463929462  2.3267840873759997  13.518189210434
82  2  3.093844929462  4.8295569126240006  15.915803789565997
83  2  5.4373930705380005  9.483125087376001  6.104472789566
84  2  1.171774070538  11.985897912623999  3.7068582104339995
85  2  1.171774070538  11.985897912623999  6.104472789566
86  2  5.4373930705380005  9.483125087376001  3.7068582104339995
87  2  3.093844929462  4.8295569126240006  13.518189210434
88  2  7.359463929462  2.3267840873759997  15.915803789565997
89  2  5.193979787922  12.070915243704  3.673244590428
90  2  0.928360787922  9.398107756296  6.138086409571999
91  2  7.602877212078  4.914574243704  15.949417409572
92  2  3.337258212078  2.2417667562959998  13.484575590427998
93  2  3.337258212078  2.2417667562959998  15.949417409572
94  2  7.602877212078  4.914574243704  13.484575590427998
95  2  0.928360787922  9.398107756296  3.673244590428
96  2  5.193979787922  12.070915243704  6.138086409571999
97  1  5.252316393366  7.044587578944  4.9056655
98  1  0.9866973933659999  0.111753421056  4.9056655
99  1  7.544540606634  14.200928578944  14.716996499999999
100  1  3.278921606634  7.268094421056001  14.716996499999999
101  1  1.043165657688  6.985147010598  4.9056655
102  1  5.308784657688  0.171193989402  4.9056655
103  1  3.222453342312  14.141488010598001  14.716996499999999
104  1  7.488072342312  7.327534989402  14.716996499999999
105  1  3.171820444782  10.526419416402002  4.9056655
106  1  7.437439444782  10.942603583598  4.9056655
107  1  1.0937985552179998  3.3700784164020003  14.716996499999999
108  1  5.359417555218  3.7862625835980004  14.716996499999999
109  1  3.131169095712  8.151902534556001  4.9056655
110  1  7.396788095712  13.317120465444  4.9056655
111  1  1.134449904288  0.9955615345559999  14.716996499999999
112  1  5.400068904288  6.1607794654440005  14.716996499999999
113  1  1.056815638488  10.762421229900001  12.404603141933999
114  1  5.322434638488  10.7066017701  17.029389858066
115  1  3.208803361512  3.6060802299000003  7.218058858065999
116  1  7.4744223615120005  3.5502607701  2.593272141934
117  1  7.4744223615120005  3.5502607701  7.218058858065999
118  1  3.208803361512  3.6060802299000003  2.593272141934
119  1  5.322434638488  10.7066017701  12.404603141933999
120  1  1.056815638488  10.762421229900001  17.029389858066
121  1  0.9088413153780001  8.78820143823  11.087137615253999
122  1  5.174460315378  12.680821561770001  18.346855384746
123  1  3.356777684622  1.6318604382300002  8.535524384746
124  1  7.622396684622  5.524480561770001  1.275806615254
125  1  7.622396684622  5.524480561770001  8.535524384746
126  1  3.356777684622  1.6318604382300002  1.275806615254
127  1  5.174460315378  12.680821561770001  11.087137615253999
128  1  0.9088413153780001  8.78820143823  18.346855384746
129  1  1.004698305546  9.53861535549  8.818247698841999
130  1  5.2703173055459995  11.930407644510002  0.9930833011579999
131  1  3.260920694454  2.3822743554900003  10.804414301158
132  1  7.526539694454001  4.77406664451  18.629578698842
133  1  7.526539694454001  4.77406664451  10.804414301158
134  1  3.260920694454  2.3822743554900003  18.629578698842
135  1  5.2703173055459995  11.930407644510002  8.818247698841999
136  1  1.004698305546  9.53861535549  0.9930833011579999
137  1  1.023083123436  11.899792817712001  8.768543495996
138  1  5.288702123436  9.569230182287999  1.042787504004
139  1  3.242535876564  4.743451817712  10.854118504004
140  1  7.508154876564  2.412889182288  18.579874495996
141  1  7.508154876564  2.412889182288  10.854118504004
142  1  3.242535876564  4.743451817712  18.579874495996
143  1  5.288702123436  9.569230182287999  8.768543495996
144  1  1.023083123436  11.899792817712001  1.042787504004
145  1  1.1188377387480002  12.678660346788  11.004899038812
146  1  5.384456738748  8.790362653212  18.429093961188
147  1  3.1467812612520003  5.5223193467880005  8.617762961188
148  1  7.412400261252  1.6340216532120002  1.1935680388119998
149  1  7.412400261252  1.6340216532120002  8.617762961188
150  1  3.1467812612520003  5.5223193467880005  1.1935680388119998
151  1  5.384456738748  8.790362653212  11.004899038812
152  1  1.1188377387480002  12.678660346788  18.429093961188
