ITEM: TIMESTEP
71
ITEM: NUMBER OF ATOMS
807
ITEM: BOX BOUNDS pp pp pp
0.0000000000000000e+00 2.0467911000000001e+01
0.0000000000000000e+00 3.1413153000000001e+01
0.0000000000000000e+00 2.2917808000000001e+01
ITEM: ATOMS id type q x y z 
19 2 0.427406 3.63248 1.53637 5.45146 
33 2 0.431189 3.36734 0.875902 7.62786 
103 2 0.460638 1.27375 4.31741 3.19748 
158 2 0.402376 4.68996 1.6713 0.332284 
295 1 -0.0745259 6.45558 3.21977 6.3505 
298 1 -0.138341 1.00025 1.6904 4.02037 
299 1 -0.136584 4.02064 4.01881 3.61326 
308 1 -0.0976809 2.75305 4.85305 5.48374 
310 1 -0.121942 6.07523 0.660315 3.74033 
313 1 -0.0960556 6.25771 1.12861 7.65222 
321 1 -0.252904 1.98951 3.03188 0.460427 
345 1 -0.146047 6.1035 3.00324 4.07615 
348 1 -0.141683 0.832077 3.38527 5.70943 
351 1 -0.093596 4.65033 5.70583 2.08408 
352 1 -0.115315 2.87245 5.37726 0.521078 
364 1 -0.223912 2.84393 2.16669 2.56803 
468 2 0.400515 6.36462 3.33183 0.840988 
512 2 0.439081 6.35428 5.88304 4.39407 
546 1 -0.055405 4.67653 4.58035 6.85937 
52 1 -0.185836 7.89728 3.98927 2.81978 
120 2 0.430234 9.64438 4.63251 0.29255 
253 2 0.462153 13.4352 1.71517 4.45213 
272 1 -0.115493 13.1019 1.92925 1.76251 
276 1 -0.180829 9.02841 2.17545 1.62764 
285 1 -0.113607 12.9867 4.8497 4.34214 
309 1 -0.0762954 8.29302 4.60096 6.64441 
314 1 -0.0696605 9.2985 4.74618 4.5784 
319 1 -0.0540575 11.2327 3.42077 4.63597 
322 1 -0.147791 7.02941 5.94761 1.66087 
323 1 -0.117603 11.2384 31.1064 3.95627 
529 1 -0.108647 7.86255 0.20558 2.25422 
538 1 -0.102619 11.0592 1.82473 2.89057 
580 1 -0.0274206 11.3607 2.26964 6.68346 
616 2 0.431607 10.987 5.09611 1.92609 
707 2 0.457085 8.35691 1.13762 5.67341 
801 1 -0.0737694 11.3587 31.3543 6.31583 
54 2 0.409058 16.3378 6.08128 4.812 
274 1 -0.165445 14.4126 4.69203 0.419492 
278 1 -0.162523 14.2297 3.79158 2.64868 
279 1 -0.0759284 15.9352 3.01771 6.20609 
280 1 -0.0848484 13.9981 4.25152 6.34396 
281 1 -0.123529 14.3853 -0.00366114 2.17109 
282 1 -0.039133 16.0994 0.582236 3.65898 
288 1 -0.125898 18.2429 3.84019 3.37662 
293 1 -0.0603474 19.5158 1.97593 2.76889 
297 1 -0.15761 18.6823 4.78806 1.21745 
300 1 -0.121248 16.104 2.91119 3.8824 
304 1 -0.0911345 18.1804 0.049716 2.69878 
329 1 -0.132297 19.2669 4.64272 5.39026 
338 2 0.41165 16.3523 5.51922 2.19707 
503 2 0.453631 16.7294 2.42496 1.21942 
516 1 -0.127501 20.0304 2.86284 0.668816 
543 1 -0.176761 17.7051 4.27437 7.12854 
558 1 -0.0516356 15.7521 0.928344 7.34747 
615 2 0.461069 19.3878 1.1971 5.56551 
294 1 -0.0512388 1.49807 7.31317 0.887283 
330 1 -0.0028553 2.59078 8.84491 2.41136 
336 1 -0.0335629 4.64436 7.85547 3.03443 
359 1 0.042998 5.70096 9.6301 1.78013 
377 1 -0.173845 3.86268 11.984 7.49215 
418 1 0.0114498 2.37634 7.25947 5.91995 
542 2 0.4367 5.91028 9.71812 7.63045 
563 1 -0.139966 5.54747 6.76148 6.98732 
601 1 0.000185131 1.30371 8.75028 4.32973 
606 1 -0.00877305 1.39094 11.6324 7.25663 
617 1 -0.113471 4.4112 8.25723 5.43401 
618 1 -0.0179806 3.81968 11.0913 2.0318 
620 1 -0.0400861 0.979435 10.9894 5.0205 
622 1 -0.0699609 0.643655 7.87922 7.37251 
629 1 -0.0816512 4.63239 10.6853 5.64909 
673 1 -0.0566819 3.02985 11.8092 4.25996 
789 2 0.430477 1.00092 11.8961 2.21391 
195 2 0.43062 10.6769 9.62074 3.94352 
317 2 0.428831 7.115 8.44219 5.04733 
318 1 -0.117671 11.8771 6.89596 4.00518 
365 1 -0.0584405 11.8688 11.2626 7.22098 
372 1 -0.169932 12.1304 7.95305 1.87397 
373 1 -0.114873 9.89251 8.53797 1.10933 
374 1 -0.108799 7.66911 10.2082 2.89796 
375 1 -0.139903 8.26505 7.83236 2.70044 
378 1 -0.157615 9.4155 8.31892 6.53669 
379 1 -0.145447 9.80135 12.3853 7.19584 
404 2 0.433335 9.64576 11.5704 4.46273 
414 1 -0.138949 9.3195 10.8788 1.21898 
417 1 -0.174514 11.6992 11.6002 1.80237 
587 1 -0.211933 8.44356 10.4234 7.0165 
589 1 -0.160971 9.5741 7.03772 4.53822 
637 1 -0.0537785 13.1579 7.99392 5.63667 
639 1 -0.0122665 11.5973 8.98286 7.07028 
648 1 -0.195187 6.95482 11.0693 5.14294 
654 1 -0.134634 13.3772 11.9403 5.5897 
235 2 0.427014 16.4705 12.2494 4.25512 
277 1 -0.137452 19.6805 6.99391 1.53749 
328 1 -0.18316 13.3515 9.95735 2.37747 
331 1 -0.149688 17.2887 10.1227 1.32953 
332 1 -0.158314 14.9817 10.0411 0.594921 
334 1 -0.103019 18.0712 12.2847 0.635022 
335 1 -0.172676 18.0748 9.90737 3.63071 
339 1 -0.0575658 14.2869 6.4026 7.05284 
340 1 -0.116573 14.2375 9.90008 4.71278 
356 1 -0.135986 18.3617 8.38976 0.055063 
357 1 -0.0952051 19.5762 8.04015 3.73451 
361 2 0.430273 15.3568 12.05 2.38022 
369 1 -0.10798 16.5618 9.73606 5.4635 
395 1 0.021423 17.108 11.3042 7.21269 
562 1 -0.123407 19.4504 6.98003 5.84721 
599 1 -0.0952716 17.5974 8.05411 6.8378 
603 2 0.412796 15.5332 8.05154 2.71748 
624 1 -0.16518 19.4085 11.8165 4.12475 
796 2 0.435541 20.1785 9.9272 1.70726 
154 1 -0.175723 2.95839 14.1731 4.88263 
185 1 0.0379084 2.27576 17.7723 22.9023 
342 2 0.435607 3.54839 17.4001 5.34799 
343 1 -0.186054 0.685847 14.4491 1.23562 
400 1 -0.011716 4.58446 13.4637 1.84878 
407 1 -0.190791 0.271648 17.2049 4.79422 
411 2 0.442959 4.73367 15.8301 4.0998 
415 1 -0.0430426 5.59037 17.6137 2.17158 
448 1 -0.184072 1.86095 18.4597 3.36636 
456 1 0.0220488 5.09604 14.4956 22.7007 
460 1 -0.147466 2.76118 14.77 2.54266 
463 1 -0.0826927 3.27224 17.0355 2.01921 
625 1 0.00980049 6.72968 13.9853 2.81112 
667 1 -0.17391 4.84632 13.9552 6.37124 
725 1 -0.102061 0.779367 18.7043 6.49872 
736 1 -0.14439 1.24216 15.3795 6.15457 
105 1 -0.137359 12.8362 13.3344 0.507273 
141 1 -0.0667909 8.66876 18.5559 0.300623 
147 1 -0.0695035 12.4322 18.0434 4.4908 
256 2 0.418997 11.7167 14.4736 6.85302 
363 1 -0.175761 12.2445 12.8332 3.69361 
398 1 -0.0601492 6.82119 13.4118 5.06861 
410 1 -0.0243313 7.11611 16.2852 3.39151 
412 1 -0.105411 10.2505 14.0523 3.48158 
416 1 -0.0833067 12.8186 16.6308 2.63373 
427 1 0.064579 9.01327 17.4373 2.3681 
452 1 0.0446626 10.7231 15.8603 1.95743 
623 1 -0.0531568 9.88927 18.1132 6.19385 
653 1 -0.120246 13.5871 17.5155 6.76519 
689 2 0.409913 13.2928 15.2946 5.09447 
692 1 -0.125528 9.0457 14.1196 5.63556 
693 1 -0.0185326 8.76229 13.1511 1.85389 
704 1 -0.0954976 8.84901 16.1345 6.93009 
724 1 -0.0518438 6.86614 16.6359 5.86825 
749 1 0.0628717 10.1568 18.9298 3.85807 
175 2 0.440424 18.2511 15.6423 0.694212 
252 2 0.433565 15.4676 16.9299 4.24216 
383 1 -0.0194724 0.0935474 13.6054 7.3446 
385 1 -0.128171 15.9352 17.3014 0.988076 
386 1 -0.146303 15.8211 15.0532 1.8627 
388 1 -0.198609 17.5663 14.9992 3.56472 
394 1 -0.153368 13.641 14.4089 2.50966 
434 1 0.00685321 13.7239 18.1494 1.18629 
438 1 -0.197495 18.2564 17.2012 4.31018 
439 1 -0.0844947 17.416 17.8819 6.4862 
454 1 -0.24046 17.2651 18.6292 2.51716 
459 2 0.438078 0.200255 14.4981 4.02997 
553 2 0.427029 19.906 16.8224 2.30193 
612 1 -0.243023 19.1477 13.5041 2.40138 
619 1 -0.089519 17.166 14.3738 5.87558 
687 1 -0.0117707 18.7347 12.6797 6.21182 
709 1 -0.194901 14.9399 13.587 6.44589 
153 2 0.461606 4.88687 20.5777 0.728013 
193 1 -0.0689392 1.84696 21.5531 1.34825 
368 2 0.404358 6.37535 21.7246 5.72772 
405 1 -0.121096 0.927393 19.3036 1.35966 
409 1 -0.12733 3.41236 20.1706 3.96087 
421 1 -0.145832 6.22933 18.9471 5.82543 
457 1 -0.088094 5.58673 19.4492 3.60579 
462 1 -0.0878379 0.733793 24.6233 2.97936 
534 1 -0.127232 3.60774 22.2151 2.81103 
672 2 0.404707 4.6268 22.9176 5.65027 
706 2 0.423973 0.668695 21.9235 4.04836 
721 1 -0.213262 2.73662 24.0016 4.10841 
728 1 -0.224814 2.02678 22.8765 6.18326 
729 1 -0.160333 2.44941 20.4496 6.02002 
730 1 -0.162256 4.42339 19.8128 7.1118 
733 1 -0.145178 5.63296 23.0229 1.71305 
210 1 -0.0229941 10.2429 21.3746 0.649163 
257 1 -0.116779 13.6117 20.487 1.4951 
360 2 0.402914 6.92138 24.2955 5.05545 
423 1 -0.0800011 7.91647 20.8051 0.62357 
444 1 -0.108231 10.1659 23.6631 0.660917 
464 1 -0.103741 10.665 22.5878 4.08842 
467 1 -0.00292006 12.5952 21.8945 5.35493 
472 1 0.019628 11.481 20.6446 2.63176 
474 1 -0.0912298 8.77535 21.0477 4.31078 
481 1 -0.224148 10.4227 24.6828 2.87046 
585 2 0.433936 8.20592 23.4711 2.5907 
737 1 -0.171276 6.9056 21.184 2.71361 
739 1 -0.129156 9.82059 23.5319 6.176 
741 1 0.0136922 12.4703 20.6612 7.53442 
744 1 -0.12774 8.35659 19.8783 6.27409 
748 1 -0.0927423 8.82212 21.8168 7.48145 
29 2 0.456185 18.2311 24.7098 0.452342 
70 2 0.420668 15.7844 22.453 1.36699 
125 2 0.417777 18.1443 20.281 4.86561 
286 2 0.430965 13.3335 23.217 2.46523 
426 1 -0.0438049 15.4285 19.257 6.60141 
431 1 -0.207551 15.5303 20.3766 2.98104 
440 1 -0.107129 16.368 25.0882 2.87205 
441 1 -0.255299 18.4501 21.937 1.00317 
442 1 -0.170104 17.7744 23.1559 3.0857 
443 1 -0.076654 14.3439 23.5286 5.20032 
449 1 -0.252716 18.9852 19.5427 1.07517 
461 1 -0.112616 19.3582 24.3574 4.3495 
479 1 -0.116003 16.1628 22.2555 4.41668 
505 1 -0.079062 0.0719508 23.0846 1.31943 
652 2 0.398467 19.9039 20.0849 3.75393 
708 1 -0.0720404 16.5052 21.5742 6.69382 
711 1 -0.18982 18.7471 21.546 7.47133 
719 1 0.0145836 13.8929 19.9482 4.67574 
726 1 -0.176 20.1061 23.2684 6.41784 
727 1 -0.123509 19.2119 19.1621 7.50424 
777 2 0.457742 17.6984 24.2758 6.64732 
20 2 0.454289 3.16734 25.2899 1.16061 
113 2 0.46671 6.47624 29.42 3.41918 
160 2 0.412788 1.85409 29.019 0.730695 
183 2 0.409446 0.836434 27.7147 4.7735 
284 1 -0.124384 4.78286 30.3931 0.616999 
303 1 -0.161015 3.02129 29.7967 4.13049 
307 1 -0.204415 4.06682 0.0417179 2.67487 
312 1 -0.0958332 6.22929 30.8669 5.83977 
518 1 -0.0437741 4.43749 28.0827 0.951864 
519 1 -0.163155 0.946454 26.7938 2.08375 
520 1 -0.186873 0.936968 30.835 4.88257 
521 1 -0.085985 4.51228 29.2203 5.93556 
525 1 -0.168213 6.25101 25.2966 2.53458 
526 1 0.0360422 6.51247 26.8965 0.809893 
596 2 0.411815 2.28474 25.9723 6.44826 
681 2 0.40635 1.97441 0.248522 0.784127 
774 1 -0.168608 3.05935 27.7053 2.85524 
778 1 -0.133423 4.29356 25.9089 3.82226 
787 1 -0.131311 0.565658 31.2166 7.28661 
792 1 -0.135218 5.28364 26.9261 5.69605 
287 2 0.402077 11.8389 27.5165 6.75451 
316 1 -0.0532234 8.19222 28.4609 0.262459 
392 2 0.416878 11.938 25.3092 5.33126 
435 1 -0.034069 13.3473 25.7344 0.516907 
453 2 0.409076 10.8749 28.1175 4.78486 
478 1 -0.179433 8.43796 26.1208 3.28378 
482 2 0.458416 6.72199 27.8503 7.80178 
499 1 -0.122359 9.35466 30.4931 7.23528 
500 1 -0.0968583 12.7549 27.9196 22.8272 
502 1 -0.126303 9.17644 30.0559 3.45543 
507 2 0.413295 10.7015 31.0333 0.948262 
528 1 -0.136752 9.41598 28.0655 2.21235 
530 1 -0.189186 11.8235 28.2282 2.09838 
533 1 -0.115402 8.12439 29.4901 5.50477 
535 1 -0.199432 12.4664 26.0235 2.6898 
536 1 -0.152588 13.077 29.8139 3.38077 
537 1 -0.153661 7.66755 27.0873 5.32827 
768 1 -0.120254 13.0736 30.326 7.44167 
770 2 0.453777 9.93176 26.31 0.177604 
797 1 -0.157348 8.63284 25.5354 6.81886 
217 1 -0.10006 15.675 25.4383 0.567693 
381 2 0.430092 16.072 28.3345 3.80238 
446 1 -0.0912394 18.1158 26.329 3.96457 
484 1 -0.166007 14.4054 25.6108 4.14355 
487 1 -0.193147 18.4342 28.4985 0.338808 
492 1 -0.204734 17.8697 30.8911 0.418731 
493 1 -0.0628725 15.8866 30.7306 5.6428 
494 1 -0.173851 14.0322 29.2967 5.561 
497 1 -0.157367 19.3194 27.8882 2.55024 
501 1 -0.139482 17.9192 29.4951 5.86047 
506 1 -0.171705 19.3615 29.8488 3.97476 
522 2 0.406546 20.3789 30.5686 1.02943 
631 2 0.429449 16.0065 28.7743 1.76825 
755 1 -0.166369 17.366 27.1839 6.07709 
756 1 -0.166408 14.9527 27.0858 5.97957 
3 1 -0.0450122 4.48538 3.41743 8.93564 
32 1 -0.00812754 0.970138 4.25204 14.3942 
41 1 0.00164898 5.8017 3.9944 14.2995 
97 1 0.0221389 3.29291 5.04394 11.7233 
296 1 -0.122236 0.519571 2.17681 7.73104 
561 1 -0.109231 1.00689 1.08729 12.3735 
565 1 -0.0766288 2.20332 2.81991 9.3297 
570 1 0.0323462 5.82384 2.37061 10.6525 
571 1 0.0107416 4.48838 3.21521 12.5616 
572 1 -0.0667838 2.40493 2.48568 13.6117 
573 1 0.030409 4.84113 5.51639 10.0559 
577 1 -0.133845 4.85019 0.373677 11.1923 
592 1 -0.0510042 6.50238 0.209449 13.0908 
593 1 -0.0456644 6.68038 1.94864 14.7309 
626 1 -0.0626787 1.42777 4.76503 10.309 
783 1 -0.115421 2.50614 0.812613 10.5887 
802 2 0.435833 20.4229 4.95505 7.85861 
215 1 -0.122338 13.3712 1.8335 12.5278 
262 1 -0.0197926 11.1753 1.24148 13.2778 
320 1 -0.00653316 8.23642 1.60495 10.7504 
349 1 -0.0473429 9.9659 4.10567 9.79702 
432 2 0.454928 10.7118 5.74333 7.85639 
545 1 -0.0677906 13.0981 2.89609 7.98259 
574 1 -0.0826701 8.42236 0.975757 8.42626 
586 1 -0.106846 12.2655 4.37195 9.58798 
588 1 0.00548933 7.47593 5.27338 13.2272 
590 1 -0.0507673 9.46381 2.96959 7.85434 
610 1 -0.049628 10.9738 6.20267 13.7246 
613 1 -0.0294006 13.2934 6.42308 9.15057 
630 1 -0.0531566 12.4137 3.91879 11.8923 
636 1 0.00134485 10.0461 2.92015 11.9033 
638 1 -0.00698508 9.55032 4.30978 13.605 
640 1 -0.0314964 8.59663 6.04363 9.67873 
642 1 -0.049091 13.3274 5.97696 12.9363 
2 1 -0.0899939 14.8239 2.47189 14.225 
12 1 -0.0395699 15.1269 4.77808 13.9425 
24 1 -0.103864 18.1916 0.68038 12.5507 
43 2 0.417954 16.5527 2.95793 11.4779 
224 1 -0.206269 14.2595 0.251119 10.9094 
337 1 -0.136184 16.4598 6.26712 7.83757 
540 1 -0.000316342 17.2264 5.59321 13.2939 
541 1 -0.130281 18.8337 2.74571 8.62991 
548 1 -0.12711 19.6495 3.95025 10.52 
552 1 -0.0805782 17.5971 0.644068 8.81019 
555 1 -0.0848082 13.824 0.772627 8.5829 
559 1 -0.00207515 18.2714 3.6602 14.0746 
566 1 -0.0781568 17.0129 1.69422 14.2792 
633 2 0.417457 15.4679 3.13669 9.58459 
723 2 0.459152 20.5331 1.29662 15.3012 
753 1 -0.0397701 19.6948 2.60858 12.4209 
786 1 -0.146156 18.248 5.72243 11.2635 
55 1 0.0220016 0.168279 10.0574 8.69086 
68 1 -0.0693797 0.962434 10.4804 13.8828 
77 1 0.0111266 4.82842 7.08058 14.8818 
78 1 -0.00911585 3.05831 10.7354 12.9175 
82 1 0.0136927 5.00854 10.9988 14.2342 
95 1 -0.000699907 6.83534 8.76823 11.2583 
117 1 0.0178294 3.22849 7.02519 13.0462 
164 1 -0.088344 0.625025 11.8664 10.4494 
544 1 0.0182357 0.854615 8.36704 14.9197 
557 2 0.431387 6.88225 12.8462 8.08468 
567 1 -0.0458693 4.87456 9.00901 10.1066 
569 1 0.0236465 1.03355 6.51478 13.5816 
598 1 -0.0609422 1.82286 6.85011 9.15416 
600 1 -0.0108406 4.10255 7.29751 8.70431 
605 1 -0.0115689 1.03767 8.6354 10.5184 
607 1 0.0233448 3.11786 8.88305 11.5839 
628 1 -0.14079 4.6613 11.3144 9.73138 
670 1 -0.155216 2.98543 12.1703 11.1389 
684 1 -0.077294 6.69225 12.0461 10.9817 
48 1 0.025377 11.9424 8.33423 9.24148 
74 1 0.00279191 10.3503 11.6065 12.0243 
88 1 -0.0141822 7.16348 7.06512 14.5625 
104 1 -0.00637127 8.50655 8.93475 14.0862 
145 1 0.000626882 11.3877 9.48967 12.4312 
355 1 0.0195735 6.8646 6.36154 11.2216 
380 1 -0.115462 7.94171 6.75 7.54971 
406 1 -0.0121411 8.85694 11.6112 10.2228 
556 1 -0.0239254 13.7207 7.5992 14.7502 
582 1 0.0335358 13.2863 9.53007 10.9232 
602 1 0.0267624 13.2485 11.2905 9.09769 
608 1 -0.0385418 12.3144 9.47137 14.5997 
621 1 0.0166841 6.96492 10.6142 12.969 
635 1 0.0107923 8.77367 12.1143 13.5759 
643 1 -0.0855172 8.15191 9.52933 9.3558 
644 1 0.0126801 9.68386 7.71073 12.4381 
645 1 -0.0129892 9.77405 7.95182 10.0528 
657 1 -0.0430749 13.5363 11.4496 15.1198 
8 1 -0.0156094 14.315 7.21291 11.1111 
14 1 -0.0192635 15.5901 8.99316 14.2801 
53 1 -0.050436 20.149 7.11183 11.7297 
64 1 -0.0541966 18.7271 8.91452 12.1912 
73 1 -0.13273 19.7403 11.1249 12.3536 
143 2 0.438954 19.0602 7.01216 8.91475 
549 1 0.000232624 18.2076 9.68709 8.5121 
550 1 0.000719499 17.6611 7.80502 14.0184 
579 1 -0.0943566 16.4246 6.70962 10.1756 
604 1 -0.0125071 17.0917 8.91648 10.5426 
655 1 -0.000416175 15.9056 12.3941 12.0985 
662 1 -0.13902 17.9917 12.7072 13.1988 
666 1 0.0301103 15.2652 12.3501 8.3701 
685 1 -0.00719466 15.5079 10.0406 11.9971 
742 2 0.452763 18.4856 10.4253 14.6357 
119 1 -0.0332192 1.4895 18.5049 14.5045 
162 1 -0.116388 4.48017 18.4903 10.1795 
199 1 0.00345 5.58139 16.8491 13.5483 
347 2 0.422619 2.48118 14.1682 8.64495 
508 2 0.460327 4.50729 19.4918 12.9498 
581 2 0.42436 1.10613 13.4471 13.0856 
632 1 -0.0487508 3.59203 15.954 12.6827 
661 2 0.413111 4.58699 14.2244 9.57915 
664 1 0.0119093 4.49364 13.1745 14.6693 
665 1 -0.114221 4.31149 13.7844 12.427 
669 1 -0.0577083 0.712305 16.3189 9.93138 
674 1 -0.186924 5.60205 15.8626 7.67799 
675 1 -0.0930387 1.74297 17.0127 7.83559 
676 1 -0.0768604 2.65104 17.3176 10.9934 
678 1 -0.0490076 6.61452 14.289 11.6718 
679 1 -0.0905441 1.59413 16.2511 13.882 
682 1 -0.133928 4.06371 17.6729 8.04997 
688 1 -0.07457 6.26759 17.5192 11.3542 
69 1 -0.0307838 13.2251 15.3395 9.66987 
134 1 0.0200975 10.8043 15.5338 12.7533 
151 1 0.0211747 10.5507 15.9109 15.1983 
184 1 0.0318491 7.29262 15.5693 14.6277 
389 1 -0.0706403 11.713 18.4601 7.69069 
419 1 -0.0429441 12.227 17.4273 9.77622 
627 1 -0.133904 6.89882 15.7755 9.80265 
634 1 0.0163873 8.60161 14.3596 13.0694 
646 1 -0.0508766 9.92223 13.4319 9.26034 
683 1 -0.0281684 12.1517 13.264 9.8126 
686 1 0.0217104 13.234 16.1154 13.3346 
694 1 -0.0740125 9.15853 15.7549 9.30274 
695 1 0.0363906 13.5273 18.3426 14.3068 
697 1 -0.0453089 10.3004 17.1559 10.9988 
698 1 0.000831056 11.8163 13.4302 12.0579 
44 2 0.429537 19.9223 14.2525 14.8591 
71 1 -0.0123848 13.8691 12.8633 13.2402 
106 1 0.0108839 16.4514 15.6443 14.2456 
114 1 -0.0408479 18.8672 18.1387 12.8516 
420 1 0.0296322 14.6875 15.5035 11.4599 
447 1 0.0441275 16.8626 15.9657 7.71277 
597 1 -0.11682 14.5354 15.5177 7.74233 
609 1 0.0351311 18.0894 14.5042 10.3699 
611 1 -0.0649838 20.317 14.0427 9.65857 
656 1 -0.0679784 18.1646 14.9252 12.6139 
658 1 -0.0453097 19.602 18.0525 9.55765 
659 1 -0.0294231 16.5546 17.8331 13.386 
660 1 -0.0833555 20.215 16.2571 12.265 
663 1 0.0258595 15.9494 13.7567 10.1975 
699 1 0.0188154 14.2511 14.6242 14.6882 
702 1 -0.0555523 15.8687 17.4841 11.2064 
703 1 0.0109468 17.6474 16.6862 9.82796 
138 1 -0.073687 1.59085 19.1185 12.2389 
165 1 -0.0959237 5.80315 22.0157 14.1266 
182 2 0.42666 4.79399 23.7203 10.8416 
191 1 -0.13973 2.31934 23.8331 14.8311 
192 1 -0.174999 3.47588 21.7576 14.2641 
196 1 -0.11876 6.46411 21.2446 12.0016 
248 1 -0.129826 6.13472 24.2408 14.992 
344 2 0.432617 0.992144 21.7605 8.8326 
346 2 0.439175 1.87998 19.7821 9.16345 
471 2 0.436303 0.63524 21.5245 14.1396 
731 1 -0.194846 3.32411 23.7124 8.02334 
732 1 -0.114002 1.25934 23.1448 11.5018 
734 1 -0.149352 2.65196 21.2807 12.0515 
735 1 -0.170382 4.73449 21.7594 8.51372 
747 1 -0.148145 4.52822 20.8296 10.6493 
772 1 -0.0971152 0.952006 24.7364 13.2322 
781 1 -0.161451 1.59018 24.492 9.51623 
63 2 0.43285 9.34652 19.1124 9.0737 
189 1 -0.0431935 7.99551 18.8512 14.7238 
190 1 -0.0370169 7.61081 19.2037 12.4055 
201 1 -0.069972 11.5258 23.784 7.88855 
212 1 -0.0365831 11.5168 22.6012 13.7776 
220 1 -0.0574939 13.6418 22.6826 14.7782 
233 2 0.455565 8.49658 23.263 14.1563 
250 2 0.42466 7.02341 19.1181 8.83481 
259 1 -0.0689003 7.8299 22.705 10.8226 
700 1 0.0118909 11.1634 20.2951 13.453 
705 1 -0.108143 13.4062 20.0376 12.7095 
745 1 -0.0653413 10.8057 21.7575 8.73541 
746 1 -0.13829 6.9685 22.5573 8.69418 
750 1 -0.0916139 9.78713 19.5137 11.6973 
751 1 -0.0417253 10.751 24.0513 11.9063 
795 1 -0.0788158 6.8848 24.7939 8.2581 
798 1 -0.0879851 10.0564 21.8727 10.9173 
804 1 -0.0622563 8.50399 24.7108 11.8415 
163 1 -0.0926699 13.9575 18.7784 10.6935 
176 1 -0.0585325 19.723 19.0642 14.7646 
177 2 0.422984 13.2053 22.0496 10.7717 
178 1 -0.139585 19.5889 24.7326 14.7233 
187 1 -0.0514961 16.4193 19.8974 14.6935 
205 1 -0.181109 15.131 21.4815 13.4745 
396 2 0.432405 14.0915 24.3288 10.8725 
524 2 0.421378 17.2787 20.6628 11.9885 
680 1 -0.140095 19.9236 19.5401 11.3925 
712 1 -0.171435 19.7414 21.9732 11.5162 
713 1 -0.178427 19.8999 24.5798 8.37917 
714 1 -0.222573 16.5037 23.3093 12.5986 
715 1 -0.194811 18.6838 22.7895 13.5693 
716 1 -0.133584 18.7907 22.8033 9.49894 
718 1 -0.168607 16.6447 23.4181 10.1528 
720 1 -0.0445766 13.9125 23.8535 7.50668 
738 1 -0.118232 15.2271 22.2772 8.59833 
752 1 -0.107752 14.4201 20.0437 8.68379 
761 2 0.442001 18.3781 25.2739 11.9345 
788 2 0.419087 17.1284 20.0189 9.79298 
102 2 0.426356 4.6587 25.6713 11.8102 
231 1 -0.100533 0.479537 30.5196 13.493 
246 1 -0.154047 3.87041 27.4884 13.9476 
249 1 -0.134377 2.02132 26.7764 12.6367 
301 1 -0.0626021 5.74566 30.8089 9.26362 
311 2 0.462094 0.751209 26.7348 15.2597 
465 2 0.42792 3.5921 30.9425 13.3496 
504 2 0.42658 3.44057 29.2294 11.4637 
564 1 -0.176412 1.97678 30.3892 9.03795 
576 2 0.407046 0.0478598 27.4032 7.21486 
779 1 -0.197677 0.815143 28.5045 9.97025 
780 1 -0.160356 4.80316 25.6742 7.70328 
782 1 -0.182749 2.34427 26.6497 10.2556 
784 1 -0.0604603 4.03852 25.4165 14.9921 
785 1 -0.0848003 0.458941 28.4999 12.2704 
793 1 -0.146557 4.44198 27.3696 9.33651 
794 1 -0.123423 4.05094 29.4453 8.26462 
803 1 -0.116307 6.41725 27.8187 10.6943 
807 1 -0.132383 6.09457 27.6441 13.0933 
180 1 -0.16798 11.9806 29.5175 14.6509 
228 1 -0.0550573 12.3668 25.7743 12.6835 
247 1 -0.13132 7.46645 25.7694 13.7276 
390 2 0.451905 10.5956 31.3787 10.1266 
554 1 -0.157648 12.7582 29.7797 11.3767 
560 1 -0.0741153 10.9035 30.44 12.7863 
583 1 -0.0391916 8.51702 30.9991 12.0196 
594 1 -0.086817 9.13619 26.9366 14.9708 
671 2 0.455494 9.92206 28.3116 11.3771 
710 1 -0.0403359 11.0843 25.135 9.74239 
754 1 -0.0359245 11.246 27.4196 13.9996 
767 1 -0.126254 13.6099 27.5015 11.6542 
776 1 -0.0635391 6.84406 29.5932 14.2708 
790 1 -0.0765053 7.75528 29.7574 10.1367 
791 1 -0.132329 12.7767 26.8338 9.58264 
799 1 -0.157702 9.64596 28.9296 8.88284 
800 1 -0.088177 9.61343 26.5789 8.69172 
805 1 -0.0383538 7.82998 25.9874 10.0412 
806 1 -0.181444 11.9954 29.077 9.21002 
26 2 0.429167 14.9866 29.2221 9.79088 
101 2 0.455847 20.2842 31.0501 10.3473 
118 2 0.438619 19.9938 25.9923 10.8124 
181 2 0.431231 16.1855 28.8825 8.02018 
208 1 -0.205869 15.9471 25.5617 13.4014 
230 1 -0.168672 13.7765 25.0512 14.4546 
551 1 -0.056647 18.6642 28.1512 12.876 
650 2 0.404235 15.0496 30.3548 13.5615 
701 1 -0.119458 17.3552 28.9035 11.1713 
717 1 -0.139339 15.9052 27.001 11.4521 
757 1 -0.0832508 16.3636 25.7027 9.49337 
758 1 -0.17323 18.2621 26.4385 8.2602 
760 1 -0.135885 14.4873 26.041 8.09799 
762 1 -0.15641 18.9572 28.4395 9.45524 
764 1 -0.0508233 18.6528 30.2502 13.9225 
765 1 -0.185928 16.7017 31.2516 10.9019 
766 1 -0.16539 17.8959 26.5162 14.5275 
771 1 -0.112246 18.9088 30.2832 7.88765 
22 1 -0.113415 3.43458 2.67792 19.5357 
25 1 0.0226187 2.30712 4.42222 16.3063 
28 1 -0.23761 2.38437 1.54242 21.387 
31 1 -0.0334948 2.23124 2.37428 17.5705 
37 1 -0.0487524 5.76125 0.292266 20.0094 
38 1 -0.0184274 5.10358 5.49945 18.4469 
49 1 -0.110595 3.03972 4.99851 19.4999 
240 1 -0.0528164 5.14555 1.2855 16.3242 
290 1 -0.0699908 5.4436 2.07434 18.5701 
291 1 -0.126066 0.293617 1.13424 18.326 
292 1 -0.171832 0.326784 0.494178 20.6225 
306 1 -0.0929196 1.09384 5.45025 18.06 
428 2 0.40833 0.789784 3.81547 21.0089 
575 2 0.406906 5.18775 3.86174 21.4858 
584 1 -0.113465 2.93237 1.26806 15.6316 
591 1 0.0119012 4.58659 5.12189 16.0891 
6 1 -0.148623 10.4754 4.44988 20.2726 
10 1 -0.133866 10.6861 4.32575 17.9561 
15 1 -0.181697 12.0523 1.05076 19.1575 
36 1 -0.0649612 8.48277 4.50003 17.1813 
39 1 -0.0467208 8.75049 2.97182 15.3853 
40 1 -0.0678888 10.5286 1.39108 15.5555 
45 1 -0.15388 7.52922 6.01586 22.203 
46 1 -0.234055 8.1754 4.03595 20.9561 
47 1 -0.215164 9.07297 2.06288 22.066 
83 2 0.457864 8.22967 6.31639 19.5038 
150 2 0.43464 8.00644 0.500302 17.1554 
239 1 -0.145147 7.81974 0.179983 21.1932 
251 1 -0.144314 6.89271 3.93908 18.88 
263 1 -0.138127 11.9225 2.42937 17.1897 
283 1 -0.149001 13.3451 2.71653 22.4686 
315 1 -0.204916 11.3176 2.38532 21.105 
370 2 0.4122 13.3615 5.25611 20.225 
391 2 0.427493 9.15506 1.76765 18.8656 
496 2 0.453692 12.3869 4.60603 15.5325 
773 2 0.416437 12.8807 31.3294 22.0036 
5 1 -0.197441 17.1639 2.99978 18.8222 
7 1 -0.101665 18.8918 2.22573 17.4243 
11 1 -0.0317109 15.2002 5.03335 16.3469 
13 1 -0.134718 15.6347 1.51278 17.7721 
16 1 -0.0947596 17.1753 5.16465 17.8258 
21 1 -0.0178227 19.3205 5.92927 17.1169 
23 1 -0.0071806 19.5661 3.96873 15.9313 
30 1 -0.190249 17.1484 2.69795 21.2312 
100 2 0.403559 19.2208 4.53833 19.885 
232 1 -0.182661 14.3803 0.420538 19.4782 
243 1 -0.0941533 17.3857 0.735059 16.3862 
273 1 -0.117228 14.1989 2.84995 16.477 
275 1 -0.229105 16.773 4.72556 22.6017 
305 1 -0.188784 18.9679 1.29645 22.0761 
326 2 0.42142 13.8166 3.18469 19.2558 
367 2 0.416922 17.701 0.208403 19.4559 
469 2 0.41438 20.0687 6.43466 21.5182 
491 1 -0.148692 15.1277 1.40736 21.5312 
595 2 0.417305 15.6018 5.03777 20.207 
34 1 -0.0994724 3.5813 6.24898 21.4055 
35 1 0.00543094 5.54888 7.82728 18.9342 
59 1 -0.125145 1.75121 10.4451 17.3711 
76 1 -0.0816945 1.05116 7.63476 18.7964 
85 1 -0.0615826 2.44162 8.10063 20.6389 
86 1 -0.0632706 3.79309 11.2973 18.1621 
89 1 0.0293553 2.12227 8.22631 16.8288 
90 1 0.0132695 4.48928 8.36141 16.7664 
92 1 -0.0141258 5.72642 7.2422 21.2716 
94 1 0.011842 5.37476 10.6021 16.5028 
99 1 -0.0237091 4.03093 9.6063 19.7801 
128 1 0.014677 4.56691 10.8325 21.6128 
358 1 -0.138578 1.27721 9.08714 22.3236 
376 1 0.0514499 6.12457 9.38586 22.3781 
403 1 -0.0970512 2.61641 10.9898 0.0195866 
614 2 0.426768 1.11355 10.8166 19.9729 
649 1 -0.166415 0.913368 11.8416 15.7251 
4 1 -0.116566 11.8111 6.35206 17.8148 
42 1 -0.0330621 7.53468 8.64536 18.135 
50 1 -0.0126054 10.352 9.3677 15.844 
51 1 -0.0304946 8.25367 6.79866 16.6079 
57 1 -0.00576809 11.8373 12.4123 16.5685 
61 1 -0.0247645 10.512 7.03789 15.9889 
66 1 -0.143445 11.8462 7.98359 19.4278 
80 1 0.00545396 7.64438 10.8795 17.1495 
91 1 -0.0806093 8.20517 10.5622 21.9547 
93 1 -0.131297 11.5256 11.7937 18.8778 
96 1 -0.0903684 10.5473 9.71344 18.365 
123 1 0.00885913 9.54358 11.5821 15.7915 
270 1 -0.0980903 9.35012 7.53446 21.886 
271 1 -0.147153 11.3038 6.5203 21.1992 
327 1 -0.159205 13.0593 6.67587 0.0110992 
362 1 -0.106439 8.89419 9.10707 20.0947 
371 2 0.450864 13.4134 9.74941 17.405 
437 2 0.404589 11.0298 10.1589 21.2364 
743 2 0.42013 10.783 12.2153 22.0781 
769 2 0.418861 12.4244 9.60733 22.5976 
1 1 -0.115144 13.8963 6.78086 16.9406 
9 1 -0.106481 17.3673 12.766 15.5498 
58 1 -0.184956 13.9895 8.88987 19.9134 
62 1 -0.177869 14.4353 12.0407 22.2566 
65 1 -0.0979358 15.4296 7.9679 18.2548 
72 1 -0.168537 16.8232 6.97528 21.7398 
75 1 -0.171301 17.32 7.02265 19.3713 
79 1 -0.118081 19.2676 8.47523 19.1734 
98 1 -0.218407 13.6509 11.258 20.0348 
109 1 -0.189263 19.2915 11.9307 16.7787 
110 1 -0.0938255 14.5345 12.4066 18.1993 
112 1 -0.0541013 16.3488 9.33181 16.5655 
126 1 -0.0511392 15.5694 11.4706 16.3272 
129 1 -0.000111297 19.2372 7.93958 15.8316 
333 1 -0.137952 14.7309 8.11728 22.0529 
350 1 -0.174643 19.6132 9.59127 21.3515 
393 1 -0.152874 19.5879 12.0208 21.7425 
641 1 -0.0832281 18.5658 9.68798 17.2812 
691 2 0.432772 16.6254 12.2247 20.2729 
759 2 0.436903 16.7802 9.90362 20.2776 
81 1 -0.115048 6.69637 15.6903 19.8927 
84 1 0.0252273 5.73208 13.6998 19.2139 
87 1 0.0277269 5.8403 12.784 21.2885 
127 1 -0.112827 20.3872 15.8899 17.2143 
130 1 -0.0984476 6.49476 17.978 22.918 
131 1 -0.0959403 2.63209 13.4433 16.0973 
133 1 -0.0225281 4.24625 16.3019 16.6782 
139 1 -0.000363547 3.31722 17.302 18.561 
148 2 0.425507 1.09405 12.7357 18.8309 
152 1 0.0203727 5.81768 14.4738 16.061 
206 1 -0.0617713 4.80482 17.1185 20.2308 
324 2 0.405472 6.42232 18.3152 17.9662 
353 1 -0.127489 1.26104 12.8543 22.4137 
354 1 -0.0543843 2.4322 14.2041 20.7356 
397 1 0.051478 3.51577 15.9833 21.8149 
399 1 -0.0813986 0.339981 16.4815 22.6435 
401 1 0.00731161 0.922407 17.0165 18.9128 
402 1 -0.0308534 0.460998 15.4608 20.5444 
408 1 -0.0622556 3.49749 13.7357 18.4574 
668 1 -0.0417613 2.0006 15.6383 16.0619 
677 1 -0.0718589 4.82977 18.2791 15.4003 
60 1 0.0376582 9.41588 14.1824 17.5335 
115 1 -0.200607 8.64278 16.2296 18.4288 
124 1 0.0162468 7.2689 13.2001 17.5649 
140 1 -0.0604827 11.3603 15.0553 22.5706 
144 1 -0.036847 8.97296 14.3374 22.68 
146 1 -0.0645162 9.90413 13.39 19.571 
149 1 -0.0428483 12.1404 18.2354 18.0299 
156 1 0.0260487 12.393 14.7351 16.2969 
159 1 0.0313511 12.364 17.3062 22.3644 
366 1 -0.0503272 8.17372 12.7695 21.1529 
413 1 -0.179001 10.5172 17.3294 19.5725 
422 1 -0.120891 10.5595 18.664 21.6394 
425 1 -0.0306217 7.06232 15.7408 22.2583 
455 1 -0.121089 8.5567 16.9249 16.0061 
475 1 -0.0259771 13.1541 15.1886 18.5523 
578 2 0.395276 7.9852 18.0517 20.5319 
647 1 -0.0337236 11.2795 15.1791 20.1308 
690 1 0.00287055 11.6354 18.0092 15.7092 
56 1 -0.178624 19.1755 13.9474 18.0679 
107 1 -0.12785 15.4355 14.3984 18.9877 
108 1 0.0116726 14.1285 17.2923 18.7361 
111 1 -0.0196968 19.163 17.7397 16.5614 
121 1 0.00509766 15.9996 18.1242 17.5072 
166 1 -0.0226276 17.2191 16.5362 16.2915 
255 2 0.452396 18.2673 16.4233 19.2104 
325 1 -0.134942 16.1885 13.5823 22.863 
382 1 -0.132563 16.7781 17.2029 21.5837 
384 1 -0.186066 16.8552 14.8556 20.958 
387 1 -0.1493 19.0356 13.9386 20.4228 
445 1 -0.133988 19.079 18.1282 22.0226 
466 1 -0.0485421 14.4011 17.8765 21.0492 
547 1 -0.0487387 17.0344 14.4236 17.2226 
775 2 0.452473 14.1983 15.0146 21.3792 
18 2 0.443846 4.2622 22.0023 16.8904 
132 1 -0.141774 3.10186 19.797 15.716 
135 1 -0.133091 5.21566 19.2475 21.1646 
136 1 0.01045 2.97024 19.8235 21.7719 
137 1 -0.120379 6.96271 23.6889 17.1263 
142 1 -0.0182944 1.89683 20.0332 19.7329 
157 1 -0.0655164 4.7456 23.28 22.2594 
171 1 -0.195911 0.207283 24.8084 16.9745 
194 1 -0.155083 1.90399 22.3205 19.8189 
197 1 -0.190447 6.66204 21.9535 21.7861 
234 1 -0.111445 0.735983 23.9901 22.1975 
236 1 -0.120615 3.62098 19.5938 18.1982 
238 1 -0.130133 4.38996 22.8182 19.7449 
245 1 -0.0386125 2.56529 22.2887 22.1829 
458 1 -0.129527 4.83657 24.4516 18.0077 
480 1 -0.235474 5.55724 20.7636 19.279 
539 2 0.427892 1.2115 21.4086 16.8452 
696 1 -0.123421 6.3161 20.2094 15.5667 
179 1 -0.02254 12.2072 23.9066 22.479 
198 2 0.397145 9.1282 18.9962 17.9355 
200 1 -0.258341 7.12179 21.3214 17.4837 
202 1 -0.0711358 9.98262 23.7098 20.0189 
203 1 -0.0595032 10.0464 19.7607 15.4454 
204 1 -0.11346 8.81567 24.896 18.2477 
209 1 -0.14581 9.50436 21.4373 17.1373 
216 1 0.0273462 12.2887 23.2545 17.6491 
424 1 -0.0467829 11.3034 20.9629 21.4377 
476 1 0.00145295 13.3742 24.9901 18.9268 
483 1 -0.116567 8.43729 23.6514 21.9136 