ITEM: TIMESTEP
66
ITEM: NUMBER OF ATOMS
1086
ITEM: BOX BOUNDS pp pp pp
0.0000000000000000e+00 2.1781333000000000e+01
0.0000000000000000e+00 3.3428921000000003e+01
0.0000000000000000e+00 2.4388445000000001e+01
ITEM: ATOMS id type q x y z 
134 2 0.414147 3.37948 3.04779 5.08211 
578 2 0.372197 6.94177 4.61591 1.05949 
650 2 0.428634 2.67778 3.03403 1.2973 
758 2 0.378341 4.65232 5.7497 1.51872 
1001 1 -0.215388 5.12512 1.6669 3.59575 
1044 1 -0.259435 0.611703 4.28527 5.86278 
1045 1 -0.19317 1.28965 4.16185 3.58229 
1048 1 -0.147777 1.17434 1.71635 3.35359 
1052 1 -0.242164 5.46762 4.21416 3.7733 
1054 1 -0.231474 2.84685 0.287697 0.437133 
1056 2 0.390497 2.65277 0.410033 5.69607 
1058 1 -0.269318 3.13019 0.43652 2.87365 
1059 1 -0.360517 6.81787 0.385047 4.89016 
1061 1 -0.324302 5.87138 2.31617 1.44407 
1063 1 -0.263924 1.03071 5.51889 0.235462 
1064 1 -0.346093 3.3922 5.58247 3.9277 
221 2 0.43178 10.4693 0.81503 1.06787 
398 2 0.427899 12.577 2.75452 1.11274 
574 1 -0.226428 9.25973 3.95003 2.08642 
739 1 -0.298456 8.58946 0.150761 3.1487 
780 2 0.415632 11.087 2.23263 24.2146 
799 2 0.475445 7.83104 2.74107 4.03611 
843 1 -0.292399 10.719 5.14874 0.400265 
850 1 -0.344976 7.68249 5.44052 3.32408 
852 1 -0.234834 13.0998 5.36757 1.40626 
1060 1 -0.254489 8.14669 1.7852 1.39839 
1062 1 -0.271501 10.3543 1.0943 4.45481 
1065 1 -0.267162 8.08255 5.44563 5.83495 
1068 1 -0.0941895 10.5279 3.40412 4.04602 
1072 1 -0.146768 13.9079 2.14905 3.33262 
1078 1 -0.168883 12.716 4.178 3.5073 
1079 1 -0.249411 12.4282 0.248464 3.74634 
1086 1 -0.187728 14.0821 4.83901 5.3142 
220 1 -0.222189 21.6735 0.479363 5.01296 
224 1 -0.185622 18.6185 1.24386 5.62754 
228 2 0.470161 15.9344 4.94165 2.9098 
250 1 -0.0997519 15.2229 2.72595 5.13293 
558 1 -0.145445 17.822 2.79941 1.96952 
820 1 -0.109139 18.5185 4.92175 4.38046 
923 2 0.462273 20.3578 2.92042 3.99871 
1033 1 -0.21445 18.9939 5.03501 1.93996 
1036 1 -0.211913 21.4262 4.42415 1.75699 
1038 1 -0.193754 19.5903 0.0368318 3.85697 
1040 1 -0.233088 19.4441 1.03099 1.61911 
1042 1 -0.124263 21.5795 2.08257 1.4046 
1043 1 -0.0805109 17.416 2.80115 4.30056 
1046 1 -0.173828 15.5333 2.16513 1.55416 
1084 1 -0.141084 15.0525 4.18916 0.405094 
45 2 0.472221 21.8123 11.6443 4.38697 
146 2 0.458295 3.38255 10.4255 1.21857 
320 2 0.416018 21.0816 7.07167 5.38589 
513 2 0.366628 5.95627 7.41214 3.92576 
545 1 -0.165544 0.431518 11.231 0.798364 
567 1 -0.125384 6.37555 10.8997 1.43695 
685 2 0.417667 1.2098 6.98247 4.03952 
813 1 -0.142281 0.520015 9.2452 2.00319 
828 1 -0.199538 0.692078 9.42237 5.79761 
832 1 -0.170255 2.11376 9.54819 3.76546 
834 1 -0.180609 1.94032 7.63862 0.921307 
835 1 -0.359552 3.59112 7.78361 2.70137 
838 1 -0.183378 2.86295 11.8046 3.83568 
839 1 -0.280365 5.63538 8.46349 1.27446 
888 1 -0.142582 1.41987 12.8486 2.25872 
894 1 -0.210293 5.00705 12.4928 2.75804 
896 1 -0.193093 2.20213 12.6747 6.02664 
900 1 -0.202047 6.3068 12.5408 4.93376 
937 2 0.394594 5.18605 10.011 3.8315 
42 1 -0.300868 14.5961 8.61629 6.09266 
389 2 0.380574 12.685 8.47798 3.71548 
570 1 -0.166431 11.0056 9.41268 0.359206 
590 1 -0.35253 13.3176 9.51432 1.10718 
594 1 -0.21702 14.0395 13.3156 2.05326 
664 2 0.381166 10.6609 9.26433 5.14456 
771 2 0.381766 10.6526 6.83645 2.85905 
847 1 -0.11582 8.50309 12.1427 0.803697 
849 1 -0.213083 9.61636 7.32289 0.0874124 
851 1 -0.218709 10.0628 12.0339 4.34262 
854 1 -0.291672 12.7591 11.1964 2.76468 
855 1 -0.364529 7.81364 7.448 1.83482 
858 1 -0.33724 13.6349 10.7213 5.0943 
861 1 -0.231801 8.23974 9.7068 2.79973 
911 1 -0.300846 8.03564 10.7484 4.99238 
955 2 0.464374 7.78891 12.4786 3.13833 
992 2 0.370796 8.59144 7.80897 4.8878 
1019 2 0.425361 12.2449 11.9136 0.168356 
1071 1 -0.291509 14.4316 7.42339 1.96218 
1083 1 -0.141293 10.1841 10.9366 2.07596 
176 2 0.39252 15.6295 9.39317 3.6222 
417 2 0.359927 19.1666 8.8263 0.0348501 
477 2 0.406973 21.0372 6.87959 2.46865 
554 1 -0.266565 18.3542 7.44924 2.29739 
579 1 -0.313791 16.5833 7.65305 0.649253 
637 2 0.408346 17.3801 9.8809 4.68482 
814 1 -0.290884 19.8456 11.3139 1.19732 
815 1 -0.257818 19.9608 9.29245 2.63196 
816 1 -0.185778 20.0922 9.58878 5.07598 
829 2 0.398102 17.2089 11.0453 1.28304 
856 1 -0.296301 15.3923 12.4479 5.5104 
859 1 -0.156483 17.4306 6.99967 4.46314 
869 1 -0.238109 19.2643 11.8205 5.48483 
871 1 -0.213919 19.6248 12.841 3.15371 
956 2 0.392805 15.7366 10.0355 1.69666 
989 2 0.403966 17.3086 11.7837 3.60265 
1085 1 -0.26442 15.025 6.9612 4.3904 
65 2 0.376253 5.28019 17.0945 4.34057 
103 2 0.381906 6.93238 18.2052 2.35398 
177 2 0.394156 3.81861 14.3026 4.35885 
306 2 0.393965 2.30266 17.0957 4.64003 
308 2 0.449172 6.09143 13.3343 0.0588826 
612 1 -0.246137 1.02446 17.2839 1.43195 
621 1 -0.267855 3.03001 15.9412 0.638871 
627 1 -0.18878 3.38329 13.585 1.16547 
678 1 -0.282106 7.18211 19.6705 0.18106 
879 1 -0.179608 0.422518 14.2566 5.84681 
891 1 -0.302333 4.95762 16.8375 1.59271 
895 1 -0.276989 5.96471 14.7921 2.65851 
899 1 -0.268701 3.93903 19.5003 4.98728 
945 1 -0.220573 1.58351 19.8504 4.53611 
946 1 -0.243471 1.69297 19.474 2.16314 
950 1 -0.31412 4.09579 18.9798 2.60644 
997 2 0.405007 2.14563 15.326 3.04998 
71 2 0.349035 8.14952 18.6878 4.85238 
107 2 0.41525 11.1409 13.6189 2.10786 
223 2 0.392186 7.81137 19.861 3.23491 
231 2 0.427733 12.9977 13.2218 4.53299 
494 2 0.3842 8.30956 16.8478 2.61757 
536 2 0.35865 9.23216 16.8564 5.15739 
591 2 0.416492 12.5207 18.9753 1.76843 
663 2 0.391183 11.9491 14.797 4.77388 
897 1 -0.32142 7.13971 14.8496 4.82287 
903 1 -0.386444 11.029 16.4304 3.04012 
904 1 -0.265551 13.8988 19.3162 4.74766 
905 1 -0.207656 8.16655 14.3705 1.69652 
906 1 -0.20401 8.46595 15.9465 24.347 
908 1 -0.272911 14.6202 15.662 4.3876 
910 1 -0.264675 13.2463 15.6455 2.32554 
914 1 -0.20442 9.44621 19.4114 0.9327 
915 1 -0.405172 9.41574 14.5264 3.83584 
918 1 -0.20788 10.313 17.1823 0.81654 
919 1 -0.361255 11.4596 18.587 4.31976 
924 2 0.427515 12.7829 14.6245 24.1818 
68 2 0.384389 16.84 18.5742 1.18721 
89 1 -0.216147 15.7341 17.6894 5.01311 
144 2 0.395346 14.7792 18.1355 2.49162 
145 2 0.420562 15.9901 15.738 1.44395 
377 2 0.410403 20.4804 14.8255 1.04429 
522 2 0.405916 19.0104 14.4101 5.02085 
747 2 0.417301 19.6339 16.335 5.3186 
800 2 0.421266 20.1027 19.0463 2.16043 
870 1 -0.26426 17.944 14.2917 2.31099 
874 1 -0.227096 21.5908 14.2091 3.52522 
875 1 -0.251413 21.2094 16.5662 3.08464 
878 1 -0.283747 18.8306 16.6409 2.31687 
880 1 -0.233336 17.731 18.3779 3.76819 
883 1 -0.190755 19.4343 19.1029 5.40382 
884 1 -0.2721 21.6586 18.0799 5.02171 
909 1 -0.213915 15.8399 13.811 3.5386 
24 2 0.42914 3.53408 22.3569 3.01672 
383 2 0.41615 0.870832 23.5302 2.47485 
645 2 0.411635 2.62405 26.2366 4.98021 
670 1 -0.216957 5.06645 22.4721 0.317073 
827 2 0.422418 3.12376 21.2932 1.43722 
898 1 -0.298726 0.785993 21.322 0.491071 
929 1 -0.139496 2.66371 25.9553 2.20025 
936 1 -0.299185 0.23489 26.2988 2.76107 
938 2 0.412875 5.86514 26.251 1.09942 
947 1 -0.249965 5.66607 20.6369 1.81052 
948 1 -0.279578 1.33666 22.3026 4.7124 
949 1 -0.202359 4.83798 21.7629 5.38413 
951 1 -0.244163 3.28574 23.6473 5.30467 
953 1 -0.274844 6.54826 22.0759 3.60849 
957 1 -0.27834 4.47421 25.0052 3.50554 
972 1 -0.242216 6.14092 23.8305 2.02476 
1021 2 0.349709 7.03707 25.6217 5.02677 
16 2 0.371065 8.42777 24.7859 3.78594 
48 2 0.429137 12.0138 21.1662 5.10357 
434 2 0.380859 13.6171 25.4894 4.73425 
696 2 0.457015 8.25976 21.7598 1.44077 
763 2 0.404043 12.6656 22.8417 3.89412 
876 1 -0.209403 13.9302 22.1546 1.40668 
916 1 -0.192813 10.332 20.296 2.98637 
928 1 -0.33295 11.7717 25.326 2.7073 
958 1 -0.226856 13.9732 24.5092 2.06552 
965 1 -0.270685 10.1957 23.5133 2.48151 
966 1 -0.154498 11.5532 21.7663 1.50455 
967 1 -0.342573 9.01991 22.0493 4.09625 
968 1 -0.231355 8.45324 24.1892 0.939324 
973 1 -0.132307 9.05491 26.2821 24.338 
13 2 0.408345 20.1978 21.5666 2.01891 
225 2 0.410146 19.3132 25.986 1.64405 
343 2 0.413732 21.0081 21.0092 4.04205 
491 2 0.467889 16.3014 23.4405 1.49259 
651 1 -0.239279 17.5722 21.2634 0.556674 
656 1 -0.290161 15.4544 23.0242 4.67616 
683 1 -0.237791 18.7727 23.423 0.772735 
688 1 -0.143185 14.8453 21.1078 3.3449 
877 1 -0.135411 17.7218 22.2491 4.40404 
882 1 -0.180387 17.1 20.5675 2.85586 
922 1 -0.195173 18.3215 24.1637 3.17246 
927 1 -0.203761 21.7144 25.4934 0.454726 
931 1 -0.302484 20.3631 24.9765 4.36031 
932 1 -0.259016 16.0037 25.3033 3.42351 
942 1 -0.234947 21.2133 23.1535 5.88977 
1013 1 -0.213917 16.2808 26.4004 1.13425 
12 2 0.471423 1.55471 27.9775 0.250076 
36 2 0.413177 1.97078 28.947 4.83724 
188 2 0.365185 5.3492 32.2863 3.13206 
313 2 0.428301 0.863272 32.4738 2.47193 
358 2 0.388067 4.85141 29.947 3.80069 
471 2 0.374831 6.98876 32.6113 1.21595 
713 2 0.369765 6.29774 29.1753 2.30315 
729 1 -0.290515 3.83239 28.0063 1.93931 
889 2 0.37 5.74615 29.9905 0.569395 
952 1 -0.380497 5.24616 27.3236 4.01328 
975 1 -0.344665 0.806489 31.6427 5.42697 
1000 1 -0.179588 2.49823 31.2573 0.229518 
1002 1 -0.328162 2.76274 31.5887 3.97263 
1003 1 -0.212077 2.30471 29.8871 2.2649 
159 1 -0.479093 9.47692 26.8774 5.58716 
198 1 -0.326908 13.3937 28.1898 5.50175 
204 1 -0.230304 13.8592 30.3309 4.36541 
243 2 0.425402 14.5249 28.1554 2.90169 
247 2 0.368379 7.83204 31.1791 4.25376 
283 2 0.420489 8.91988 26.7313 2.64863 
289 2 0.385638 10.8399 31.5496 4.40889 
686 2 0.405014 11.0245 29.3488 5.4754 
734 1 -0.28204 9.48508 31.6644 1.79057 
784 2 0.43501 13.5187 27.1946 1.89541 
962 1 -0.312481 11.494 27.1538 4.28227 
969 1 -0.126066 11.1477 26.8767 0.935486 
1004 1 -0.327306 7.83733 28.1768 0.494724 
1006 1 -0.404291 7.69967 28.2424 4.42405 
1024 1 -0.182668 13.9455 29.3582 0.0884327 
1025 1 -0.0983218 10.997 28.6897 2.48389 
1027 1 -0.148192 12.8477 30.1891 2.14761 
1028 1 -0.326968 8.75764 29.4255 2.42981 
1080 1 -0.201394 11.9023 32.2321 1.82922 
1081 1 -0.362232 13.3775 32.4174 5.58958 
130 2 0.407293 14.6451 32.7485 2.58611 
163 1 -0.357508 15.7071 27.2845 5.05101 
203 1 -0.301088 17.4094 30.9487 5.96807 
433 2 0.426675 21.5024 32.7996 0.920754 
564 2 0.426592 15.6063 31.5611 0.629926 
677 2 0.404324 18.9763 28.2559 1.38344 
721 2 0.415995 16.3731 32.8708 4.26671 
740 2 0.398331 19.2325 27.8206 4.04432 
867 2 0.405995 17.308 27.7573 3.06875 
939 2 0.391506 19.7601 32.267 6.2799 
954 2 0.423239 20.7196 31.2899 2.34613 
959 2 0.410877 17.2895 33.1168 1.60184 
980 1 -0.232416 0.116743 28.8123 2.61938 
981 1 -0.333586 20.9772 29.9236 4.64816 
982 1 -0.224062 21.0037 29.4761 0.41216 
983 1 -0.308736 17.2997 30.4518 2.30312 
984 1 -0.226531 18.8609 30.6401 0.365771 
991 1 -0.204661 16.1282 29.6807 4.3567 
1023 1 -0.217943 16.2405 28.8121 0.709964 
1029 1 -0.264634 18.9357 31.1297 4.08436 
1037 2 0.403378 0.0790863 26.9355 5.15535 
15 2 0.397182 2.663 3.06365 7.67348 
31 1 -0.253138 5.01124 5.91618 10.8016 
47 2 0.420535 21.5092 3.92984 9.00612 
215 1 -0.357875 1.11477 1.70931 9.24078 
219 1 -0.336279 0.307668 2.07726 6.87533 
233 1 -0.346058 2.56236 5.82781 6.30339 
237 1 -0.260302 5.54071 1.87113 10.5084 
239 1 -0.333301 1.8854 3.73801 10.4623 
240 1 -0.27709 4.22844 3.82641 9.77066 
242 2 0.396871 4.09811 0.085258 7.5845 
244 1 -0.154321 6.20702 3.99233 6.07341 
501 1 -0.193011 1.0945 6.12886 10.6244 
525 2 0.397252 5.10157 1.66156 6.5964 
551 2 0.420653 7.27699 4.36729 8.58365 
609 2 0.417163 0.341864 5.56728 8.05535 
837 1 -0.285237 4.57102 4.94394 7.56602 
853 2 0.443857 2.72669 5.85629 8.8697 
886 2 0.402833 3.20475 1.08419 12.0779 
162 2 0.411893 8.30798 3.29934 10.3027 
229 1 -0.300451 7.3646 1.16186 8.99828 
253 1 -0.249874 9.18244 0.853463 10.6225 
255 1 -0.300521 12.9644 1.1081 9.97068 
256 1 -0.283481 14.3346 2.33809 8.30685 
258 1 -0.288718 10.1195 6.38984 9.19828 
262 1 -0.240137 10.9628 4.23126 8.28536 
264 1 -0.322702 13.3475 4.69825 7.65243 
479 1 -0.245947 10.9906 2.49051 10.186 
528 2 0.42269 12.2886 2.73522 6.17671 
530 1 -0.199266 10.3587 5.84032 11.6393 
541 1 -0.21504 11.1625 3.66316 12.2604 
631 2 0.374606 11.6784 0.608676 6.70232 
720 2 0.397446 13.0045 4.28812 10.2462 
793 2 0.393713 10.4521 6.34179 6.49249 
963 2 0.377244 10.4061 0.893122 8.26524 
1051 1 -0.246578 7.63612 2.05515 6.65621 
1057 2 0.390031 7.72833 6.56445 10.5537 
1066 1 -0.162579 9.56462 3.60184 6.29628 
1 1 -0.271848 17.7505 6.25012 9.58904 
194 1 -0.341258 17.6609 0.293735 9.37147 
202 1 -0.307125 16.0628 2.01758 10.0806 
216 1 -0.258905 19.2068 2.22782 9.50466 
217 1 -0.190495 19.8408 2.63926 7.1713 
218 1 -0.261603 21.1935 1.83304 10.9527 
257 1 -0.307645 17.1353 33.259 6.96153 
279 2 0.411449 17.6312 4.59955 7.23197 
381 2 0.387283 15.4333 4.81178 9.25371 
504 1 -0.309856 17.7256 3.91359 10.5277 
533 1 -0.251243 14.774 0.833213 11.7644 
772 2 0.428107 16.9001 2.61495 7.47395 
822 2 0.423938 16.1856 6.19622 6.77846 
823 1 -0.230164 20.0572 4.86825 6.301 
902 2 0.440866 20.1786 5.213 10.2221 
1074 2 0.368009 15.7923 3.53636 12.3684 
1082 1 -0.243289 14.95 0.78965 6.49382 
20 1 -0.0282332 5.82492 12.7367 7.14515 
22 1 -0.185867 4.39958 10.8131 9.38518 
26 1 -0.275812 5.58071 6.89939 8.66839 
32 1 -0.25057 4.37326 12.0148 11.557 
40 1 -0.167118 6.69116 10.9724 8.50989 
81 2 0.408154 5.41947 9.21422 11.2831 
95 1 -0.133101 3.63566 12.6125 7.94343 
117 2 0.384308 5.63964 9.64136 6.54854 
190 2 0.385658 5.66396 6.7997 6.03997 
232 1 -0.148486 3.12794 7.40233 10.9286 
293 1 -0.180532 6.69371 12.2528 12.0183 
456 2 0.391809 1.53422 10.1328 9.74924 
817 1 -0.297208 0.841226 11.2502 7.29165 
819 1 -0.289061 1.60595 7.95778 7.52551 
840 1 -0.248011 3.6919 8.51045 8.87219 
862 2 0.386751 3.59637 8.60963 5.95274 
39 1 -0.275979 11.4364 11.0453 11.9504 
43 1 -0.431892 8.0019 7.08779 7.78368 
44 1 -0.374999 8.29336 9.52519 7.1744 
90 1 -0.243516 10.2836 11.7021 9.86846 
93 1 -0.294114 10.5753 10.1052 7.97996 
118 2 0.445031 8.9507 12.2277 7.14477 
259 1 -0.256473 11.8411 8.21014 9.01721 
260 1 -0.337412 12.7957 9.10182 11.1704 
261 1 -0.287047 13.8803 7.21314 8.06128 
267 1 -0.0890861 7.96787 12.2367 10.0086 
559 2 0.381771 8.57438 8.96792 9.61649 
616 2 0.402831 10.1775 8.52041 11.1781 
679 2 0.429907 9.91962 13.6899 11.8422 
698 2 0.385001 12.3173 6.90929 5.92616 
857 1 -0.251938 11.6345 11.4983 6.20935 
940 2 0.381909 8.41372 10.0289 11.5055 
1012 2 0.391573 14.2168 11.52 7.54795 
1014 2 0.394181 12.5751 11.1366 9.19409 
1050 2 0.401221 14.0744 11.641 11.2129 
2 1 -0.195697 20.4614 8.19739 11.5005 
3 1 -0.216373 16.564 11.435 12.1887 
6 1 -0.184747 17.4995 13.439 11.1446 
7 1 -0.293889 21.4733 7.60913 9.19679 
9 1 -0.239967 18.5234 8.1408 6.29185 
34 1 -0.313648 17.2333 11.7684 6.92163 
49 1 -0.225933 20.7882 12.8141 7.06319 
59 1 -0.379906 21.231 12.357 12.0845 
213 1 -0.25737 19.5532 6.64875 7.94427 
222 1 -0.311895 15.9759 7.95809 9.24729 
307 1 -0.369889 15.3657 9.32636 11.2846 
362 2 0.38001 20.4618 11.2268 9.90591 
378 2 0.381141 14.6854 6.73753 11.3933 
423 2 0.400956 16.8257 11.0536 9.49806 
762 2 0.407184 20.2296 9.78689 7.77348 
818 1 -0.268664 16.6502 9.31144 7.26914 
833 2 0.41098 18.4517 9.10567 10.0171 
865 2 0.397662 14.2613 9.78002 8.76923 
69 1 -0.273057 4.18902 14.5355 11.2925 
72 1 -0.221716 6.51837 14.597 11.838 
74 1 -0.299029 2.87583 16.4731 12.1643 
75 1 -0.158166 3.88957 14.7901 8.91498 
78 1 -0.0972617 6.14415 14.87 8.02791 
79 1 -0.354209 4.63273 17.9952 6.87741 
84 1 -0.417558 6.75739 16.6819 6.53613 
86 1 -0.277145 2.71598 16.8026 8.0716 
129 1 -0.294347 2.05844 17.8452 10.2246 
131 1 -0.195934 5.36468 19.6589 8.54154 
132 1 -0.227635 3.62251 19.8218 10.2826 
142 2 0.408663 6.40457 19.1899 11.0252 
562 2 0.411267 4.57781 17.1529 10.0159 
563 2 0.421379 0.796099 15.4704 10.4672 
595 2 0.384572 1.8857 12.9206 10.8902 
669 2 0.413139 2.46798 19.3604 7.25531 
872 2 0.404896 6.8907 17.1227 9.37398 
885 1 -0.229155 0.548553 16.5121 6.83591 
912 2 0.389264 6.49293 17.3427 11.985 
993 2 0.403832 6.77507 19.7892 6.03173 
1073 2 0.399354 3.80803 15.2123 6.18713 
1075 2 0.404424 0.951313 13.5845 8.69126 
41 1 -0.329214 14.3476 14.4091 6.54393 
46 1 -0.0894959 7.70245 14.5619 9.79251 
55 1 -0.264557 10.9829 16.4094 11.2621 
63 2 0.410604 9.02169 14.2887 6.96538 
83 1 -0.176413 7.86875 19.6305 8.9867 
87 1 -0.358812 8.77746 17.6322 7.72118 
92 1 -0.281901 9.66055 15.8141 9.33324 
94 1 -0.180893 11.8725 18.6048 10.4357 
97 1 -0.237295 11.2084 13.875 9.25826 
98 1 -0.279639 10.2968 19.1142 6.47207 
99 1 -0.318558 12.6131 14.6152 11.1105 
149 1 -0.117125 11.8898 19.8651 8.08409 
268 2 0.418352 9.0017 18.0192 11.3117 
333 1 -0.182833 14.2369 18.2215 10.4854 
355 2 0.382512 12.6621 17.457 6.18036 
680 2 0.396968 12.5894 16.2066 8.87721 
718 2 0.356368 10.8838 15.9489 6.78432 
860 1 -0.406549 12.1295 13.6694 7.08645 
944 2 0.400369 13.8907 17.3624 7.603 
4 1 -0.187535 19.823 14.1125 11.2467 
8 1 -0.2849 14.6988 15.7953 10.5607 
50 1 -0.253333 19.8162 14.3361 8.82941 
54 1 -0.315023 15.7567 15.3714 8.33613 
56 1 -0.248134 20.5733 16.3255 12.2117 
57 1 -0.213897 20.4943 16.7344 8.42506 
58 1 -0.210072 18.7453 18.2674 7.52232 
61 1 -0.289283 17.461 13.6253 8.70119 
66 1 -0.258814 21.2948 17.9659 10.3885 
96 1 -0.121351 15.0992 19.6413 12.2025 
119 2 0.412862 18.3322 15.691 7.35147 
319 2 0.411572 16.9291 14.7471 5.8478 
323 2 0.414641 17.8081 16.9291 9.726 
329 1 -0.123816 15.354 19.3214 8.62489 
421 2 0.424718 18.0186 16.191 11.6989 
723 2 0.388483 14.51 13.2743 9.31001 
868 1 -0.241713 16.4503 17.5602 7.35252 
873 2 0.422265 17.7155 18.8354 11.0952 
113 1 -0.474114 0.114709 22.3441 10.105 
133 1 -0.271302 2.56192 21.9757 10.4722 
135 1 -0.331598 0.362382 23.9944 8.08033 
136 1 -0.2552 4.03805 23.3811 9.09313 
138 1 -0.188416 5.49913 21.8801 7.70052 
139 1 -0.208904 7.49114 24.2761 11.2719 
140 1 -0.22568 5.1253 24.8306 10.8026 
141 1 -0.350336 2.72342 24.7615 7.53897 
356 2 0.346046 1.78626 24.0187 11.7902 
380 2 0.368405 2.36082 25.2964 9.91553 
488 2 0.389389 0.804048 20.8937 12.2344 
577 2 0.373797 5.55529 24.2905 6.27603 
613 2 0.40309 0.964447 20.0834 9.05895 
659 2 0.430701 2.26862 21.9498 7.30064 
826 2 0.392216 6.71276 24.4134 8.67976 
892 2 0.458094 5.90282 21.9693 10.5215 
52 1 -0.132018 13.9515 20.2581 6.98381 
85 2 0.446156 11.0974 21.1525 9.97072 
121 2 0.351787 8.72749 24.3054 6.94447 
137 1 -0.170622 7.90729 21.7895 8.0367 
143 1 -0.228059 8.88293 22.7705 10.0095 
147 1 -0.15761 8.71496 26.2815 11.1448 
153 1 -0.228782 11.6218 22.3885 7.49974 
154 1 -0.268492 11.1319 23.7117 9.46537 
155 1 -0.23479 9.60803 21.4791 6.38227 
158 1 -0.173466 10.5971 26.0736 9.61692 
161 1 -0.242387 12.6073 26.5758 10.8801 
164 1 -0.350123 13.3796 24.1492 10.5203 
210 2 0.39855 13.9283 26.2753 8.49453 
397 1 -0.244493 8.81611 20.6855 11.1757 
478 2 0.353363 10.9469 24.2918 5.61936 
596 2 0.44943 13.5675 21.2201 10.0974 
626 2 0.376403 12.1631 26.0641 7.00786 
930 2 0.368541 10.0996 24.1189 12.0954 
961 1 -0.30279 14.0782 22.7115 6.84711 
64 2 0.391661 19.0075 22.9357 10.0635 
88 2 0.371441 15.4278 25.546 11.4916 
108 1 -0.342743 20.2688 20.3408 10.1544 
110 1 -0.262003 18.6274 20.5481 8.33103 
114 1 -0.313777 16.6674 25.8597 8.93748 
115 1 -0.158944 16.3417 21.568 11.5972 
124 1 -0.192554 20.5729 25.8331 8.39607 
157 1 -0.222807 16.4237 21.4021 9.24371 
248 2 0.410875 16.8467 22.4699 6.98511 
382 1 -0.23999 18.7722 21.0963 12.0364 
429 1 -0.255788 18.8458 25.9625 10.1682 
629 2 0.37073 21.3553 24.9084 10.7977 
643 2 0.387746 15.4611 25.0363 6.5662 
699 2 0.402888 18.2413 24.2025 7.19223 
831 2 0.403081 21.4223 20.0067 7.19534 
917 1 -0.362194 15.2027 23.6484 8.84802 
926 1 -0.310351 19.319 21.4914 6.08972 
934 2 0.401023 19.952 22.8317 8.26335 
935 2 0.445793 16.5092 20.1846 5.85934 
978 1 -0.158857 19.5092 26.2992 6.27031 
988 2 0.395711 17.2595 23.7445 10.4749 
122 2 0.453158 3.85585 30.4392 10.1219 
166 1 -0.333638 1.43509 29.5007 11.3496 
167 1 -0.30656 1.69268 28.9878 8.87732 
173 1 -0.187795 4.56778 33.1117 10.173 
175 1 -0.314443 2.28782 32.9454 9.40753 
179 1 -0.243649 4.62833 27.1504 10.3587 
180 1 -0.334573 3.40169 27.2236 8.17366 
181 1 -0.331455 2.03226 31.1558 7.64134 
184 1 -0.019157 6.84377 29.3708 11.2598 
186 1 -0.208653 6.4053 32.412 8.70355 
191 1 -0.205647 3.85657 30.8576 6.05963 
192 1 -0.363488 3.33155 28.2105 12.2726 
236 1 -0.349325 6.07126 31.8521 6.35006 
303 2 0.372744 0.289185 33.1087 7.6857 
438 2 0.387668 0.270011 31.1673 9.73286 
439 1 -0.222651 1.8366 31.9246 11.5828 
546 2 0.403055 1.15206 27.1366 6.95837 
667 2 0.451213 4.98727 29.6293 8.63719 
745 2 0.444583 6.86629 33.0225 11.2846 
777 2 0.366087 1.11527 26.9087 10.292 
996 1 -0.105121 6.99311 27.4888 9.99343 
1005 1 -0.245923 4.45752 28.4299 6.15182 
1018 1 -0.269549 6.73538 29.4211 6.31336 
1034 2 0.389749 6.05249 26.779 7.55254 
120 2 0.358385 9.55627 31.5419 7.81364 
125 2 0.359595 8.78957 33.0571 6.39031 
156 1 -0.279037 10.2418 27.6988 7.78109 
195 1 -0.52857 11.997 31.3084 7.37452 
196 1 -0.205099 7.92799 30.7975 9.6816 
197 1 -0.234805 13.7308 28.5295 9.85544 
199 1 -0.255928 9.85967 31.9709 10.6714 
200 1 -0.229697 13.4442 30.6173 11.1333 
208 1 -0.286579 12.4771 28.9019 7.67223 
252 1 -0.321529 12.1005 32.1365 9.70495 
469 2 0.409793 13.8971 32.8653 8.14383 
475 1 -0.216664 8.09614 28.8159 8.27049 
555 2 0.427929 10.8007 29.6936 9.50677 
960 2 0.370416 9.4437 29.8893 6.2485 
974 2 0.45043 10.4769 28.6197 11.1392 
17 2 0.378449 21.2752 30.5271 7.48863 
28 2 0.423552 15.3709 28.5764 7.76562 
60 2 0.364209 20.351 0.00513469 8.90809 
100 2 0.376399 18.7878 31.5067 8.40223 
127 1 -0.364273 16.0614 27.7886 10.266 
168 1 -0.147491 18.047 29.1907 7.42175 
170 1 -0.195092 19.6792 28.2263 10.5158 
171 1 -0.241373 21.205 28.1575 8.64366 
172 1 -0.283014 17.7755 29.4697 9.84573 
174 1 -0.448561 17.8013 31.7372 11.0138 
193 1 -0.146922 17.2684 26.9702 6.8574 
201 1 -0.285531 15.4696 31.8733 11.9925 
404 2 0.410562 15.063 32.6382 9.65182 
774 2 0.39242 16.1912 31.1961 8.76014 
791 2 0.407874 14.819 30.6511 6.87394 
846 2 0.389701 20.2851 30.7661 10.3129 
986 1 -0.231498 20.1625 28.5729 6.54741 
14 2 0.397985 7.29599 3.05568 16.914 
123 2 0.394357 5.69991 1.74822 15.6365 
152 2 0.405066 1.47173 2.36599 12.5799 
160 2 0.4625 0.386633 1.69403 17.4827 
183 1 -0.305335 4.93431 33.4286 14.1714 
185 1 -0.301862 6.04269 1.8544 12.9784 
234 1 -0.236104 0.68834 0.669328 14.6699 
238 1 -0.367949 6.03771 4.02556 14.362 
241 1 -0.342373 6.10738 6.09468 13.0218 
302 1 -0.128062 3.79161 6.57089 16.2768 
338 2 0.385571 6.71285 6.57115 15.8315 
359 2 0.39645 4.28748 3.80075 12.3159 
436 2 0.410441 5.35585 1.72294 17.6306 
467 1 -0.307167 2.99304 0.780893 15.6083 
498 1 -0.215646 2.93524 2.97472 16.7457 
507 1 -0.175173 0.979608 4.25071 16.2296 
514 1 -0.118535 1.41247 6.55758 16.0871 
520 1 -0.318718 4.87207 4.41901 16.5445 
552 2 0.415921 2.5024 5.53193 13.477 
617 2 0.381623 3.30227 3.12627 14.2529 
30 1 -0.332068 8.59905 6.41025 13.2147 
33 2 0.394682 12.8617 3.75236 17.9563 
148 2 0.402681 10.65 1.86216 18.2582 
187 2 0.421301 12.145 0.104971 12.1552 
227 2 0.375346 13.4193 4.96086 12.5488 
449 1 -0.29992 14.5661 1.80258 14.0132 
453 2 0.410489 8.0778 1.0823 16.1476 
459 1 -0.170822 8.33646 1.09282 12.8994 
482 1 -0.408231 13.6151 33.2062 18.3723 
516 1 -0.247707 13.3069 4.94723 15.7268 
518 1 -0.28285 9.59342 4.19354 16.8355 
519 1 -0.237323 8.31594 4.6197 14.781 
531 1 -0.221666 11.4087 5.70622 17.0549 
532 1 -0.294168 10.4941 33.4021 16.1662 
534 1 -0.248341 12.6014 3.149 14.2926 
538 1 -0.103857 9.50203 2.89617 13.76 
539 1 -0.257047 10.7792 2.36166 15.7042 
542 2 0.37368 7.8038 6.1188 17.7046 
603 2 0.417034 7.62284 4.03022 11.9775 
681 2 0.405946 13.2673 1.82571 16.6472 
987 2 0.457859 10.9881 5.36342 14.3789 
1067 2 0.429714 11.0754 0.828686 13.4996 
272 1 -0.182424 18.4433 6.8918 11.842 
281 2 0.392703 17.1587 1.34254 13.5464 
394 2 0.421717 20.3894 5.74618 15.052 
442 1 -0.107979 19.2796 0.827296 17.0767 
496 1 -0.221091 18.8202 4.60888 12.6318 
497 1 -0.192516 16.9764 6.08337 16.265 
500 1 -0.232971 21.5716 2.93302 14.6603 
502 1 -0.195723 21.1314 3.86809 12.4853 
503 1 -0.29313 15.3443 4.44802 16.9411 
510 1 -0.147447 19.6046 2.98378 16.0345 
527 1 -0.278148 16.3105 2.58283 15.6457 
582 2 0.401123 18.7676 1.62277 12.0977 
652 2 0.427169 19.8661 0.641669 14.2765 
657 2 0.385286 15.768 5.49653 13.8717 
709 1 -0.109737 16.9213 0.275556 16.7878 
768 1 -0.148941 20.8184 4.28872 17.6347 
775 1 -0.27406 17.9054 4.22426 14.917 
836 1 -0.15291 21.5365 6.37932 12.5482 
999 2 0.429491 17.8924 4.23227 17.9085 
18 1 -0.10573 2.99029 8.48421 13.0758 
21 1 -0.198536 4.76863 7.65524 14.3528 
270 1 -0.181603 0.0222105 9.96423 14.9287 
291 1 -0.134366 0.909603 7.83137 14.1314 
294 1 -0.210469 3.63799 10.7561 13.553 
295 1 -0.200359 2.66056 11.6823 17.2983 
296 1 -0.219366 5.42518 9.89617 14.8984 
297 1 -0.24362 4.69377 10.2085 17.2021 
300 1 -0.215082 4.04153 7.96304 18.175 
339 1 -0.285616 1.83238 11.6285 14.9698 
424 2 0.410436 1.23151 10.5076 12.4323 
440 2 0.396909 4.73697 12.8245 16.0404 
634 2 0.475967 2.49632 9.14852 15.8963 
746 2 0.396523 5.86612 13.1549 14.4336 
770 2 0.362437 6.95553 8.40896 18.2 
990 2 0.380119 7.17009 8.54048 12.982 
23 1 -0.171814 11.5618 7.75183 15.872 
38 1 -0.25085 9.85484 10.3516 13.7441 
206 2 0.373523 8.25307 8.99447 15.8484 
309 1 -0.331764 7.4353 10.9515 13.9767 
310 1 -0.27789 10.4386 11.315 15.8731 
311 1 -0.246578 10.1885 8.04557 13.9952 
312 1 -0.314373 11.647 9.67955 17.2864 
314 1 -0.277727 12.6984 12.9308 13.0037 
316 1 -0.226637 13.8207 10.6283 17.8935 
317 1 -0.299516 11.898 13.2164 15.3962 
321 1 -0.276831 13.6812 12.9646 17.1998 
342 1 -0.283081 8.05984 11.9053 16.0756 
414 2 0.439043 13.6601 7.82661 17.2803 
535 1 -0.234212 13.4864 7.02368 14.6105 
540 1 -0.246921 12.0636 7.32424 12.6054 
682 2 0.420699 13.0143 9.62556 13.7409 
687 2 0.384836 10.8984 13.0401 17.7286 
964 2 0.428266 13.2327 10.7864 15.3481 
1015 2 0.381619 9.33629 10.6044 18.3746 
1076 2 0.383496 9.66814 7.64559 17.9196 
19 1 -0.177162 18.0067 10.4119 13.8421 
207 2 0.437341 14.9642 7.19805 18.4144 
212 1 -0.229108 16.8276 8.36752 13.0646 
269 1 -0.238387 20.3131 10.2732 12.9902 
271 1 -0.291197 17.4839 11.2629 16.2229 
275 1 -0.12953 15.8509 9.69141 16.8831 
276 1 -0.233681 15.1402 12.9416 13.508 
278 1 -0.245618 15.778 13.0503 15.9857 
290 1 -0.220754 21.1166 9.81759 17.3442 
473 2 0.421133 19.4359 7.78261 16.4536 
474 2 0.434427 15.4043 10.3435 14.3168 
476 2 0.392271 20.0354 11.9294 15.4998 
505 1 -0.208404 15.73 7.8618 15.1873 
506 2 0.429812 19.4227 8.11145 14.2456 
767 1 -0.15571 0.118645 7.54383 17.8723 
29 2 0.40368 0.365453 19.8257 15.2957 
77 1 -0.266481 4.13724 18.1238 13.5663 
330 1 -0.439236 0.473057 13.3658 13.9667 
331 1 -0.278911 0.919471 17.1677 15.4614 
337 1 -0.337737 2.63766 19.0035 15.2615 
340 1 -0.306185 0.897644 15.7369 13.4417 
341 1 -0.163213 6.56125 15.1135 17.3763 
349 1 -0.212262 3.45121 18.032 17.3289 
350 1 -0.249029 7.0181 18.5007 18.3046 
352 1 -0.105492 5.63781 17.2608 16.8206 
354 1 -0.227435 6.27282 17.6003 14.5846 
357 1 -0.264091 1.86724 16.1805 17.4837 
405 2 0.408358 2.02542 19.1785 12.516 
561 2 0.396006 1.08674 19.1052 17.6425 
602 1 -0.243901 2.90574 13.8708 18.2683 
913 2 0.381143 2.86526 14.7979 15.6283 
943 2 0.384205 3.00297 13.576 13.4043 
1069 2 0.387553 4.83927 15.5008 14.5573 
25 2 0.387206 14.2754 15.0859 14.9833 
105 1 -0.22004 9.81001 16.3376 13.5304 
226 2 0.403996 8.68252 13.692 18.4739 
292 2 0.47174 8.35891 16.9609 16.0624 
305 2 0.397134 12.8364 15.9289 16.7473 
345 1 -0.191232 8.02276 14.2847 15.7107 
346 1 -0.242745 7.50562 15.6567 13.7673 
353 1 -0.30899 8.43107 20.025 16.8804 
363 1 -0.24424 10.3121 15.0961 15.6706 
368 1 -0.264882 10.2482 16.5017 17.6929 
369 1 -0.197855 10.0376 18.6023 14.1437 
372 1 -0.200115 10.4497 18.6915 16.5248 
373 1 -0.326824 11.0477 19.9468 12.3117 
376 1 -0.184207 7.86003 19.404 14.5795 
412 2 0.431991 9.41259 13.1771 13.7165 
511 2 0.406816 12.0917 15.3128 13.6738 
632 1 -0.259426 12.6756 19.4506 17.005 
715 2 0.400743 12.5939 18.0251 13.6003 
5 1 -0.254533 16.0385 14.9276 12.4483 
53 1 -0.303519 19.0515 17.2663 14.0458 
67 2 0.393683 17.5769 18.8884 16.6789 
80 2 0.397516 14.4524 16.9169 12.9626 
111 1 -0.194389 18.4041 19.599 13.9279 
126 2 0.409857 18.0725 13.5594 13.9943 
332 1 -0.374971 16.7579 16.3633 14.4641 
334 1 -0.333429 20.3958 18.0219 16.0019 
360 1 -0.458319 16.4205 15.329 16.8154 
392 1 -0.306393 19.7904 20.4251 15.7056 
419 2 0.406855 0.147072 18.1614 13.1345 
428 1 -0.29501 16.1258 18.7713 14.2398 
628 2 0.392456 14.8694 17.7072 16.4507 
732 2 0.381961 20.3562 14.9662 14.8562 
842 2 0.364162 18.3444 13.587 17.2146 
848 2 0.380076 0.475393 13.6706 16.7442 
1008 2 0.392431 18.6331 16.1161 16.4894 
76 1 -0.272016 7.06545 20.9374 12.8752 
128 1 -0.225909 4.71149 20.1495 12.4349 
284 2 0.375166 3.09783 25.8197 12.6823 
328 2 0.391799 0.440708 22.4149 17.1878 
387 1 -0.468861 2.07469 21.6285 14.9865 
396 1 -0.211852 0.884192 25.1217 16.7561 
399 1 -0.278908 3.31392 22.0301 12.8521 
400 1 -0.371462 2.85054 23.6866 16.5225 
407 1 -0.272425 7.00217 23.3137 13.4279 
408 1 -0.218367 4.71877 23.9842 13.1052 
411 1 -0.29709 4.15702 25.2668 15.1836 
462 1 -0.243647 6.06073 25.7301 16.7066 
560 2 0.408065 5.29368 20.4659 15.1285 
592 2 0.406004 5.95128 23.0293 17.2649 
660 2 0.381471 3.49691 20.9596 17.11 
676 2 0.401842 3.15596 26.2997 17.8566 
825 2 0.405592 5.13286 22.7277 15.3117 
881 2 0.393278 5.88348 20.8792 17.994 
1077 2 0.382034 1.66969 24.0827 14.2642 
235 2 0.37819 12.6493 24.881 12.9645 
249 2 0.356619 10.0418 24.5462 14.2062 
361 1 -0.272002 13.3014 20.9109 13.1746 
370 1 -0.257113 14.2661 20.1861 15.2919 
406 1 -0.398263 8.62423 22.5747 17.3391 
410 1 -0.342221 7.75774 24.2978 15.6486 
420 1 -0.256871 11.1289 25.9055 16.726 
422 1 -0.346626 14.4543 23.0011 12.5198 
426 1 -0.256789 10.8798 23.5429 17.5406 
427 1 -0.232467 12.7242 21.8517 17.4203 
430 1 -0.378364 12.9774 26.2814 15.1272 
451 1 -0.298097 8.97759 26.4794 15.5905 
724 2 0.388279 8.60288 21.9686 14.8333 
755 2 0.373812 11.6024 22.4793 12.1204 
821 2 0.436321 6.96351 26.0017 13.3096 
844 2 0.389157 12.3894 23.6349 15.3516 
976 2 0.428686 8.58883 25.1662 18.1102 