ITEM: TIMESTEP
159
ITEM: NUMBER OF ATOMS
1510
ITEM: BOX BOUNDS pp pp pp
0.0000000000000000e+00 2.3783884000000000e+01
0.0000000000000000e+00 3.6502341999999999e+01
0.0000000000000000e+00 2.6630700000000001e+01
ITEM: ATOMS id type q x y z 
93 1 -0.439421 4.93901 4.6921 3.2747 
251 2 0.318316 4.21128 1.63927 2.75846 
267 2 0.320445 0.935381 3.84513 5.92515 
312 2 0.348873 3.34942 2.03152 4.79374 
400 2 0.345426 0.961276 1.19173 5.01687 
401 1 -0.480825 3.31471 4.4893 5.30975 
407 1 -0.609195 1.91247 3.89684 0.175379 
432 2 0.311374 1.76599 1.83367 1.69323 
598 2 0.362034 6.33749 2.4737 2.2931 
606 2 0.348484 6.47146 4.7089 6.60574 
612 1 -0.672748 8.01497 0.430723 1.90527 
658 2 0.350116 2.24201 3.97433 2.90081 
682 2 0.33233 1.39628 36.4453 2.46579 
803 1 -0.688078 5.72723 0.582224 0.685707 
845 1 -0.599545 7.54786 4.29855 3.3951 
1087 2 0.363064 5.84315 3.28416 5.18932 
1169 1 -0.406818 3.55222 5.56335 1.23594 
1242 2 0.345507 4.49249 3.28501 0.623522 
1299 2 0.328112 6.02328 0.965472 5.26947 
1387 2 0.380385 0.0982984 4.21822 3.4538 
1466 2 0.338779 7.76325 4.63139 0.0568146 
69 1 -0.492296 15.6157 3.49872 4.85134 
70 1 -0.666633 8.1502 1.88974 3.97815 
207 2 0.287673 10.5738 1.31458 4.94551 
210 2 0.280728 12.3767 36.1844 4.05552 
234 2 0.286231 10.8806 4.31804 6.27625 
238 2 0.370434 8.98328 3.00821 1.37785 
320 2 0.32118 12.07 4.49771 1.58316 
355 2 0.289134 13.058 1.52122 2.25151 
404 1 -0.597852 10.1394 0.880626 0.578883 
557 2 0.325589 12.9234 2.67163 5.81978 
680 2 0.337043 14.7889 3.98829 1.46608 
702 1 -0.716648 14.6975 1.12991 4.35188 
763 2 0.365196 12.4717 2.26719 26.6207 
820 2 0.342795 13.4525 4.24586 3.60919 
833 2 0.293226 10.6764 2.55123 3.04201 
868 1 -0.592392 13.958 5.35736 5.81875 
908 1 -0.631181 9.49043 5.48122 2.17948 
1042 2 0.344326 14.6705 6.51613 1.43932 
1178 2 0.313705 10.737 5.17895 4.38328 
1200 1 -0.840359 13.474 0.264961 6.41766 
1318 1 -0.684581 8.44004 1.30294 6.54777 
1396 2 0.34153 8.59148 3.70797 5.72946 
8 1 -0.45681 21.225 3.28701 3.38125 
74 1 -0.578169 17.2173 4.91825 1.06957 
145 2 0.343009 19.1674 3.5293 1.75178 
365 2 0.348333 15.9057 1.84709 1.94599 
469 1 -0.507444 23.2409 3.16245 0.55486 
474 1 -0.520447 16.2325 5.3496 3.34447 
491 1 -0.696188 20.5861 3.96249 5.75274 
505 1 -0.508284 22.4748 5.47851 5.40204 
649 2 0.347372 22.4078 2.1915 5.43628 
767 2 0.346504 18.5572 4.20647 3.59829 
797 1 -0.403991 21.5534 4.87627 1.51839 
905 2 0.324258 19.4711 1.25096 6.25875 
1015 2 0.341077 17.4604 1.84675 3.91962 
1016 2 0.356228 18.8932 0.834082 2.89522 
1070 1 -0.622516 23.1547 1.83892 2.76808 
1164 2 0.362767 21.0944 0.75732 1.85214 
1248 2 0.319487 18.0105 3.54985 6.0554 
1409 2 0.317809 16.7397 0.306132 6.01472 
1420 2 0.336241 17.897 1.69677 0.639913 
2 1 -0.411416 4.08017 6.4366 6.54291 
32 2 0.317486 8.49459 6.34196 4.93453 
92 1 -0.39982 7.25246 10.9761 0.117151 
111 1 -0.244273 2.84711 7.72476 2.0357 
113 1 -0.180728 4.24322 8.37009 4.03785 
130 1 -0.280967 5.03245 10.8607 1.21447 
155 2 0.456198 2.49609 10.2277 2.43587 
177 1 -0.344052 3.45989 9.26248 0.162797 
257 2 0.449249 2.5955 10.2556 4.16668 
269 2 0.424483 2.06159 6.55769 4.18544 
329 2 0.364635 7.49913 9.1239 2.23355 
440 2 0.377429 1.00744 8.12876 0.103492 
485 1 -0.442661 5.68346 6.53915 4.68061 
489 1 -0.440575 2.77808 8.67599 6.07914 
513 1 -0.260081 0.443723 8.10062 2.75594 
666 2 0.375383 5.44779 8.14161 1.58704 
799 2 0.377616 0.976493 6.64544 5.98656 
932 1 -0.392255 7.91227 10.9815 4.0295 
963 2 0.380172 6.00817 11.1791 6.28736 
1100 1 -0.254937 5.42342 10.5011 3.62444 
1187 2 0.348169 6.32177 5.71587 1.23615 
1227 1 -0.365427 0.468406 9.13013 4.98982 
1462 2 0.35141 1.28615 11.9302 5.99596 
1499 2 0.345044 6.69778 8.93581 5.56704 
51 2 0.341196 15.116 9.18932 0.198947 
80 2 0.358182 11.4489 11.3839 2.62597 
112 1 -0.662227 12.4295 6.58347 3.22447 
137 2 0.347114 9.07083 7.37577 0.53154 
153 2 0.388461 10.1691 11.4264 5.19683 
176 1 -0.455211 8.9993 11.2315 1.80875 
212 2 0.374758 13.5365 11.5962 4.69436 
389 2 0.341371 11.9476 9.41523 0.602334 
425 1 -0.416027 14.643 7.06845 4.17903 
446 1 -0.367451 15.7594 11.212 6.27729 
483 1 -0.58147 10.9213 9.41677 6.67325 
487 1 -0.606349 10.2461 7.71335 2.9988 
555 1 -0.638296 13.5604 11.5426 1.11777 
633 2 0.361578 13.6979 9.07362 2.54959 
663 2 0.359024 11.8738 9.24566 4.13088 
687 2 0.345873 7.60778 7.17345 3.10184 
864 1 -0.666584 9.19372 8.96363 4.91446 
865 1 -0.568539 15.3784 9.5805 4.37436 
894 1 -0.515706 15.7833 11.0509 2.41444 
1427 2 0.308769 9.26011 7.38859 6.98613 
1480 2 0.361243 11.9139 7.23087 0.892737 
13 2 0.359144 16.8876 8.03337 2.72945 
56 2 0.315985 19.6797 6.33092 5.21161 
85 1 -0.494163 19.4064 6.05447 0.482359 
224 2 0.376643 21.1471 10.8794 2.67989 
335 2 0.394488 22.3933 12.5341 0.705646 
343 2 0.337017 20.2046 10.978 5.17295 
467 2 0.376716 18.3816 12.1012 6.27136 
494 1 -0.351253 23.5331 10.1048 1.51623 
503 1 -0.652793 17.6914 10.2268 0.826027 
524 1 -0.547141 19.5429 8.5672 1.12957 
681 2 0.317994 19.9211 8.6439 5.71699 
707 2 0.342659 16.7685 6.16737 5.71848 
838 1 -0.370003 22.4633 6.36404 3.17977 
874 2 0.38868 0.586371 5.83323 1.24301 
907 1 -0.560649 22.3799 7.82648 6.12676 
951 2 0.353979 22.3469 10.7461 5.85932 
1075 2 0.37828 21.9979 7.45097 0.814357 
1089 1 -0.401304 0.179383 11.3794 3.57949 
1347 2 0.325898 17.4547 8.99383 5.68172 
1398 2 0.34923 18.4879 10.4711 3.30127 
1439 2 0.36434 21.6065 8.75549 3.53166 
1504 2 0.348486 19.3816 6.86448 3.02765 
67 1 -0.35439 5.60661 13.9633 5.71248 
89 2 0.383835 3.99094 15.9274 7.10243 
259 2 0.395347 0.358738 13.0417 1.4695 
533 1 -0.317071 3.1318 12.4365 1.04184 
534 1 -0.437469 6.11503 15.2555 0.154329 
553 1 -0.266436 2.31523 12.8893 3.32617 
590 1 -0.48492 3.5353 14.766 0.253526 
623 2 0.385471 7.09606 15.8939 5.55921 
862 1 -0.248712 4.10132 12.1661 4.94881 
891 2 0.369802 23.6256 13.6813 5.74612 
892 1 -0.46947 2.65124 15.2826 2.73504 
893 1 -0.300057 0.163483 15.2449 3.37937 
901 1 -0.370464 6.70998 16.2787 2.56909 
1150 2 0.435151 7.16595 12.9724 2.23904 
1165 2 0.354277 4.23327 17.0618 1.82543 
1192 2 0.427785 4.93829 14.1572 2.35007 
1247 1 -0.472248 4.76392 15.9747 4.249 
1294 2 0.378429 2.51662 14.7562 5.43424 
1370 2 0.367799 2.33314 17.1207 0.216673 
1405 2 0.381829 0.44931 15.3763 0.707098 
1431 2 0.389461 6.09836 17.8216 0.609538 
1464 2 0.432344 5.88806 13.0425 3.34493 
42 2 0.390654 14.4249 13.3071 2.62527 
184 2 0.396885 8.19099 17.2719 4.77996 
206 1 -0.314603 12.8431 15.2819 3.12446 
240 1 -0.283509 13.5482 17.0587 1.62862 
546 1 -0.232143 8.69825 14.8948 3.30858 
556 1 -0.327359 9.65605 13.5453 1.45209 
563 1 -0.413694 12.2069 13.7565 1.23793 
615 1 -0.361944 11.3034 15.6407 6.47059 
620 2 0.398646 12.3578 13.4254 5.33153 
957 2 0.391296 14.9371 17.2919 6.40806 
987 1 -0.31214 8.02336 13.3032 5.07405 
988 1 -0.272032 10.6828 16.1487 4.14237 
1020 2 0.399579 10.7635 13.4381 3.88657 
1168 2 0.381568 8.63413 18.1205 6.66303 
1207 1 -0.397288 14.8817 14.8693 4.63119 
1311 2 0.388428 13.8862 17.3921 4.32708 
1346 2 0.436973 10.7974 16.0698 1.59422 
1414 2 0.387301 8.95689 17.536 1.25278 
219 1 -0.505694 23.7724 17.9845 0.195751 
252 1 -0.465366 17.7761 17.842 0.313716 
399 2 0.396309 17.1581 14.7302 5.87129 
445 1 -0.420645 16.3915 12.725 4.30135 
449 2 0.360513 17.4067 14.1061 25.8818 
509 1 -0.417124 16.4467 16.8828 4.2396 
564 1 -0.276775 20.0254 17.0673 5.55785 
565 1 -0.317358 18.8363 13.6458 4.02046 
568 2 0.374498 17.6096 12.8297 1.73428 
573 1 -0.249035 22.005 18.0375 4.31367 
575 1 -0.352817 19.489 17.0486 1.82701 
585 1 -0.268621 20.329 13.3726 2.06407 
586 1 -0.245244 20.9042 15.4273 0.85951 
587 1 -0.287827 22.5825 16.9007 2.05757 
629 1 -0.375331 15.8366 17.9112 2.00372 
830 2 0.360155 19.2234 13.9782 8.11585 
866 1 -0.309848 22.3805 13.2299 3.55178 
882 1 -0.299001 20.8685 13.4491 5.47507 
916 2 0.481306 21.1873 15.5133 3.69537 
948 1 -0.181574 18.6504 16.0337 3.83513 
960 1 -0.411926 17.7747 18.0001 6.1291 
991 1 -0.250529 23.4601 16.4143 5.48532 
1081 2 0.38688 18.4039 15.2066 0.419034 
1226 2 0.37253 16.6391 14.9482 2.41092 
1255 1 -0.323218 21.5118 15.4272 6.66886 
14 2 0.337492 1.21071 18.5266 2.42879 
53 2 0.355633 6.40321 21.655 3.05885 
60 1 -0.410407 5.70243 23.3924 5.77418 
62 2 0.344898 4.2416 19.1375 3.55563 
147 2 0.336216 0.791429 23.4146 4.24246 
221 1 -0.534319 4.66443 18.0322 5.87379 
279 1 -0.546059 4.67984 21.2697 4.9363 
364 2 0.340245 1.42225 20.6952 4.39117 
535 1 -0.344324 3.19526 20.0269 6.50028 
605 1 -0.568733 6.73349 20.2677 0.840417 
671 1 -0.549609 0.890216 23.2483 0.768257 
676 1 -0.471645 7.43895 18.7555 2.87919 
726 2 0.342023 4.22888 19.7354 1.54302 
748 1 -0.369718 6.47772 19.5919 5.07425 
811 2 0.375569 2.84413 22.6347 6.24745 
1004 2 0.367958 7.38424 22.6968 0.304428 
1043 2 0.371139 2.32515 17.4805 4.48185 
1264 2 0.332901 3.34596 22.5921 2.92977 
1452 1 -0.613318 2.34111 21.2933 0.946916 
133 2 0.396611 12.2594 18.0909 4.70905 
190 1 -0.316223 15.6659 20.3731 1.8649 
192 1 -0.495205 13.2678 20.8799 1.31144 
328 2 0.358837 10.4781 23.3484 2.18655 
396 2 0.386389 15.3866 19.5333 6.55452 
439 2 0.38031 16.2378 19.6594 4.4516 
480 2 0.37947 11.1534 20.8565 3.07098 
548 2 0.335002 9.17205 20.6968 1.574 
611 1 -0.385366 13.0495 22.6357 3.04136 
619 1 -0.399733 10.4589 19.8431 5.66966 
626 1 -0.316309 15.5037 22.3651 3.36892 
675 1 -0.3985 11.8102 18.8133 1.58751 
692 1 -0.446449 12.0289 21.954 5.29489 
966 1 -0.386496 10.0318 18.5498 3.484 
996 2 0.369552 13.5226 19.0059 26.2337 
1111 2 0.386891 13.0562 19.7682 6.4485 
1112 2 0.39077 13.7201 19.9208 3.7045 
1116 1 -0.561708 10.1487 23.6447 5.1448 
1118 2 0.394992 15.2819 24.6166 6.60546 
1190 2 0.333727 8.51072 23.7543 2.46703 
1215 2 0.346393 14.8467 24.7291 1.96146 
1461 2 0.380233 8.69609 21.5356 4.29804 
164 2 0.387924 18.1322 18.8448 3.1325 
271 1 -0.535002 17.8803 20.2351 0.766365 
330 2 0.384532 17.1745 22.9982 1.10188 
347 2 0.340142 20.8346 19.3806 2.30632 
552 2 0.334451 23.3462 21.1613 2.19569 
597 1 -0.607756 21.8814 22.4347 3.99332 
631 1 -0.357616 16.4052 22.1668 5.68715 
651 1 -0.396318 22.5598 20.2765 5.21829 
653 1 -0.393761 20.4014 23.3702 5.75621 
661 1 -0.664587 22.9775 24.096 2.36061 
688 1 -0.571176 17.0868 24.3899 3.24429 
768 2 0.364488 19.1813 21.7011 4.31465 
793 2 0.332895 20.2079 23.8134 2.3162 
923 2 0.298492 21.6573 19.9969 26.3316 
1079 1 -0.390035 17.9624 24.1381 5.50407 
1140 2 0.360396 17.9969 21.6305 2.99029 
1228 2 0.385334 19.8225 19.4889 4.82047 
1292 2 0.310437 20.0196 21.8125 1.04629 
10 1 -0.471071 0.125613 28.6058 1.92336 
34 1 -0.275568 0.620442 29.0023 5.91049 
39 2 0.3688 8.57883 29.5297 4.85371 
332 2 0.358366 5.26753 23.8809 1.90349 
359 2 0.378723 3.49869 29.8668 4.96881 
371 1 -0.713121 6.08496 26.5328 2.59976 
530 2 0.356475 5.33143 27.7608 4.60889 
591 1 -0.360228 3.52765 26.4453 5.94316 
652 1 -0.59433 0.156503 26.3495 3.1047 
665 2 0.363786 2.16114 28.359 3.69956 
667 2 0.337488 6.59952 29.2493 2.39074 
673 1 -0.419852 6.18987 29.7492 6.03389 
714 1 -0.341637 1.07126 26.6468 5.37578 
716 1 -0.604912 4.82994 25.1681 4.27907 
732 1 -0.442318 7.04605 25.4923 0.638233 
959 2 0.342979 2.24738 26.9787 0.995935 
1001 2 0.341797 2.5761 25.3603 3.18974 
1024 2 0.356879 6.71748 25.6595 6.37264 
1208 2 0.345013 3.85327 29.1644 26.4605 
1258 2 0.365882 4.18975 25.8317 0.798591 
1282 2 0.37512 0.448751 25.7994 0.652581 
1380 2 0.353677 7.45712 24.6283 3.90466 
1502 2 0.306442 4.28834 28.5238 2.13701 
47 1 -0.633808 11.2028 25.3192 0.141611 
83 2 0.371085 14.1729 26.9047 6.34165 
197 2 0.358979 10.9669 28.227 2.46732 
265 2 0.373659 13.1566 24.4009 4.82816 
374 2 0.328297 13.2198 27.0022 0.563838 
528 1 -0.583768 9.37561 26.1204 1.51956 
589 2 0.383336 10.8208 30.7044 4.47991 
614 1 -0.492027 10.5522 25.7089 3.73705 
659 2 0.309101 16.398 25.6336 26.4238 
689 1 -0.573724 12.4215 25.0099 2.27203 
709 1 -0.625225 12.9858 29.4169 4.75092 
821 2 0.337864 8.32674 27.3503 3.88269 
824 2 0.346528 9.14077 25.8017 6.06671 
875 2 0.36966 13.8001 28.4634 2.32325 
880 2 0.352544 16.0437 26.8121 2.53025 
1007 2 0.360468 15.6324 25.7033 4.86256 
1098 1 -0.608817 10.9817 27.8832 5.06106 
1107 2 0.351922 7.81588 28.0496 1.11191 
1237 2 0.34043 9.06759 29.7005 26.558 
1289 1 -0.580764 15.3246 28.5293 4.51465 
1455 2 0.362756 13.2025 26.8134 4.02241 
91 2 0.365371 20.7611 26.9075 6.05966 
126 2 0.333189 19.7246 28.9212 5.31866 
199 2 0.329467 21.5158 26.5554 1.98557 
214 1 -0.695638 17.4398 27.8925 0.677723 
455 2 0.327119 19.6243 25.5939 3.97356 
484 2 0.378642 22.3144 28.1434 4.35375 
630 1 -0.69384 18.3502 25.6116 1.42415 
754 2 0.36011 19.5264 29.425 0.0914045 
825 2 0.376051 22.4275 25.0062 4.79106 
839 1 -0.586386 21.6156 29.4581 1.53591 
1018 2 0.334893 21.559 24.8918 26.4469 
1057 1 -0.589844 16.3509 29.4246 2.37047 
1267 2 0.359058 20.1421 31.2914 5.96323 
1406 2 0.321879 19.3565 28.1219 2.55353 
1421 2 0.348428 17.7008 27.2361 4.60014 
46 1 -0.670859 3.76535 33.3334 0.686994 
171 2 0.343187 22.821 30.9451 6.50719 
239 2 0.354188 0.0230794 30.8911 0.722347 
405 1 -0.401238 0.0523512 30.3538 3.89165 
406 1 -0.493789 5.34998 31.9524 5.70968 
409 1 -0.750735 3.9631 35.653 1.80931 
418 1 -0.65532 3.12496 36.074 4.35192 
421 1 -0.566689 6.51646 31.4677 3.56999 
441 1 -0.449813 0.965158 34.8841 4.80695 
457 2 0.376914 3.76641 33.6985 4.60561 
475 2 0.333718 8.68296 35.2411 26.5007 
538 2 0.282881 2.06911 35.5369 26.4785 
572 2 0.335587 6.29916 34.5065 0.867915 
594 1 -0.677377 5.22833 31.3351 1.36821 
1029 2 0.323615 23.7546 33.5438 2.53217 
1060 2 0.329315 2.14077 30.9525 2.05417 
1104 2 0.327844 5.99489 36.1087 3.58532 
1308 2 0.354414 2.31969 33.8597 2.632 
1319 1 -0.541368 1.45965 32.4136 4.52834 
1340 2 0.331457 6.91675 33.8954 5.05282 
1369 2 0.385048 4.39579 34.6084 6.34568 
1473 2 0.351424 3.8162 31.2795 3.54712 
1491 2 0.34985 5.3622 33.6029 2.74764 
3 1 -0.521101 12.5744 30.6931 2.65522 
4 1 -0.558975 9.47481 31.9604 6.30048 
20 1 -0.571056 11.6037 35.4844 26.4721 
96 2 0.346255 9.59327 30.1667 2.33496 
118 2 0.325607 8.54019 34.3723 2.48947 
458 2 0.404397 12.0387 30.7193 0.201283 
690 1 -0.565819 10.805 32.4368 2.37694 
727 1 -0.573169 14.5905 30.7872 1.24253 
771 2 0.303128 14.2727 34.8598 4.96687 
790 1 -0.603424 10.6096 33.1404 0.0292532 
849 2 0.350486 7.92123 31.912 1.31605 
867 1 -0.554653 8.82436 32.3588 3.94476 
869 2 0.335323 11.1276 33.6699 4.84626 
984 2 0.305667 13.1719 33.4711 2.34437 
1041 2 0.328387 8.85219 35.5586 5.15807 
1103 2 0.33471 14.0897 35.8832 1.17121 
1145 2 0.295238 13.9024 31.9308 4.68915 
1495 2 0.319279 10.721 35.4391 2.29333 
5 1 -0.636192 16.3908 35.991 3.43835 
9 2 0.344601 21.9599 32.0849 1.79655 
17 1 -0.588979 21.4017 30.5677 3.73805 
31 1 -0.620834 19.325 35.6217 0.777004 
122 2 0.339374 17.0522 30.695 5.15118 
378 1 -0.564564 18.4499 33.2204 5.53101 
380 1 -0.606437 16.8169 35.8246 0.980119 
395 1 -0.422001 20.4639 34.9952 2.97809 
486 2 0.309682 16.233 32.2818 2.59973 
488 2 0.338372 18.6561 30.5715 2.99719 
541 2 0.361536 22.5634 33.0438 4.67625 
543 2 0.35652 20.6988 34.6295 5.87314 
574 2 0.37984 18.0511 34.0157 2.53335 
657 1 -0.567839 18.5855 35.5303 4.67632 
712 1 -0.53916 20.082 32.7075 3.77076 
807 2 0.356734 16.9302 30.7413 26.6074 
861 1 -0.623204 22.8648 35.8729 3.27414 
863 2 0.361444 21.1247 0.712014 4.60163 
1174 2 0.319523 19.6269 31.9439 1.12062 
1222 2 0.310889 16.2288 33.829 4.81783 
1450 2 0.281144 15.8041 32.7449 7.22709 
82 2 0.410788 1.37884 0.0478932 13.6098 
127 2 0.356413 6.86173 36.2712 12.1393 
209 2 0.315984 4.81021 1.55589 9.81958 
261 2 0.354743 6.25037 36.1906 7.13441 
268 1 -0.7075 23.7213 4.08533 11.9572 
369 1 -0.633705 3.08059 2.94619 7.28341 
477 2 0.30562 1.34547 3.14813 9.44057 
478 1 -0.578895 4.51789 4.69867 8.32599 
704 2 0.353325 3.21286 0.710648 11.4621 
710 2 0.323077 6.525 3.99732 9.72813 
805 1 -0.509185 3.54692 0.453926 6.90484 
810 2 0.331631 6.17442 4.85166 11.9814 
843 1 -0.638029 3.90202 5.26586 10.6575 
900 2 0.317349 2.0637 5.28235 8.19712 
1023 2 0.355334 2.19911 1.01233 9.04575 
1143 2 0.311864 6.23931 2.29308 12.2736 
1204 1 -0.589775 2.43579 3.50302 11.6971 
1218 2 0.346925 5.70969 2.30962 7.62551 
1316 2 0.3692 0.540649 1.43724 11.6373 
29 2 0.312516 13.7103 6.76688 10.1723 
117 2 0.349129 14.4558 3.67912 9.64723 
178 1 -0.784925 8.39632 3.18721 8.15421 
244 2 0.329341 8.67598 5.60245 8.43358 
415 2 0.297779 9.6985 0.202683 11.3081 
416 2 0.359065 15.2861 3.51187 13.5997 
433 2 0.338673 12.1054 7.12383 5.78705 
464 2 0.347187 11.093 36.3433 6.82034 
466 1 -0.637546 15.5344 4.14975 7.29793 
558 1 -0.583253 10.8929 5.65334 10.5861 
599 2 0.313909 7.8852 1.19565 9.6888 
715 2 0.33188 13.0587 4.30854 8.16481 
933 1 -0.797282 10.6353 4.05975 8.72344 
971 2 0.335521 15.3715 1.71504 6.93105 
975 2 0.327347 9.40883 2.35622 12.8819 
1062 2 0.344221 11.3962 2.76128 10.6708 
1124 1 -0.611205 14.3911 2.04565 11.6792 
1199 1 -0.637143 12.2467 2.51811 13.0957 
1236 2 0.336933 8.74436 4.58345 11.3483 
1244 2 0.351449 13.2418 4.42181 11.6178 
1338 2 0.32813 13.4806 1.07214 8.97083 
1349 2 0.332546 10.6031 1.63939 8.15163 
131 2 0.313168 21.0092 5.80318 7.56879 
134 2 0.27448 21.858 3.68255 10.0651 
203 2 0.2892 20.6326 4.83902 12.4492 
223 2 0.290024 18.9431 4.49645 8.21883 
403 2 0.298159 16.3256 0.833834 9.77893 
444 1 -0.640075 21.1935 0.240543 8.01881 
529 2 0.324539 23.2598 1.95891 7.526 
567 1 -0.821253 16.6576 5.19709 9.25716 
747 2 0.290953 19.0591 3.04568 10.9762 
756 1 -0.948975 20.7664 2.72079 7.97899 
759 2 0.308339 19.1231 1.07601 9.46629 
885 1 -0.685453 17.8956 4.33684 13.1385 
941 1 -0.693943 20.0375 0.463453 12.0436 
1008 2 0.341951 17.3011 1.26159 12.307 
1013 2 0.284976 22.9224 4.30273 7.63792 
1094 2 0.284658 20.4787 6.3382 10.1238 
1149 2 0.286648 23.506 5.71165 9.78194 
1172 1 -0.654013 16.4877 3.56279 11.193 
1202 2 0.31938 20.9062 2.7004 12.6786 
1339 2 0.291704 17.1416 2.55883 8.6293 
1372 2 0.360266 21.9289 1.47713 10.3732 
94 1 -0.675034 4.85063 11.5403 8.88068 
99 2 0.370556 2.98238 10.5563 12.299 
141 2 0.297509 4.78401 8.96667 7.92488 
291 2 0.36015 5.56491 9.75112 12.9321 
386 2 0.288451 2.46099 7.45694 8.73532 
413 2 0.396292 6.583 12.283 10.634 
461 2 0.374175 7.38565 12.0276 7.28478 
465 1 -0.622886 3.35031 10.9474 6.97264 
579 2 0.319139 6.12109 6.76466 9.68518 
581 2 0.308432 5.5398 10.0973 10.9171 
601 2 0.296858 3.11494 8.41896 10.6308 
895 1 -0.632319 4.99651 7.26279 11.9028 
899 2 0.284228 7.33473 9.34921 8.7791 
945 1 -0.623955 7.38084 7.92714 12.0604 
985 2 0.310146 2.33789 10.7102 9.37996 
1066 2 0.373525 1.65608 5.93763 11.6066 
1312 2 0.314589 23.5143 7.49419 8.59936 
1322 1 -0.37582 0.978946 11.986 13.3498 
1343 2 0.359518 23.7786 10.5391 11.1571 
1425 2 0.299686 6.60234 6.79077 7.17057 
21 2 0.33664 10.8217 11.0097 12.5159 
28 2 0.396583 14.6766 10.0547 8.64567 
44 2 0.361339 8.01566 10.4786 12.8132 
120 2 0.328873 11.6544 6.7463 8.32845 
481 1 -0.615124 14.6329 9.08813 11.2595 
502 2 0.372951 12.8156 9.38978 8.6612 
562 1 -0.341756 14.7807 12.4971 9.96809 
719 2 0.356161 15.6175 5.90579 11.8441 
812 2 0.33432 11.8024 8.50718 11.0197 
842 2 0.354531 8.68095 9.8168 10.9523 
931 1 -0.278562 13.9362 12.5116 7.56083 
1035 2 0.351731 15.5629 10.6274 12.946 
1206 1 -0.37338 11.1023 11.1036 9.84167 
1221 1 -0.588138 10.1191 9.01942 8.96593 
1315 2 0.37448 8.98917 11.1514 7.95843 
1323 2 0.361282 13.7213 9.15216 6.23634 
1329 1 -0.640895 9.01099 7.21424 10.2539 
1341 2 0.328156 14.9358 6.96484 7.83405 
1376 1 -0.32732 11.5131 11.7592 7.46753 
1377 1 -0.557819 13.2104 11.0993 11.2553 
132 1 -0.71705 21.0185 8.24968 8.18591 
150 2 0.339007 21.9656 10.5937 9.32597 
262 2 0.332653 16.6749 8.03259 10.3006 
311 2 0.318683 19.183 9.14367 10.0381 
336 2 0.31951 18.2082 5.99086 11.1285 
512 1 -0.656681 19.729 10.3313 7.81609 
608 2 0.311215 0.38913 9.56291 7.72739 
794 2 0.383067 17.2543 9.57812 13.7547 
853 2 0.307479 18.506 10.7691 11.9767 
926 1 -0.57956 16.4062 10.6734 10.3579 
938 2 0.336941 21.348 10.2336 12.2186 
1084 2 0.318077 19.7409 12.1339 9.77413 
1088 2 0.289923 18.207 7.30763 7.99165 
1154 1 -0.516583 22.643 6.58406 12.1349 
1194 2 0.326216 19.6669 8.18959 12.4006 
1266 1 -0.594213 0.59383 8.20652 11.38 
1281 1 -0.665439 22.0005 8.40881 10.5044 
1298 1 -0.624229 17.2406 10.0824 8.05571 
18 2 0.395551 4.49983 15.0675 12.466 
63 2 0.373866 6.35009 16.4479 8.31569 
173 1 -0.393924 1.62259 17.2774 6.86673 
429 1 -0.302074 5.75992 13.7731 8.25888 
460 2 0.398161 2.22156 14.92 11.8922 
638 2 0.436706 6.84182 14.0109 11.6855 
729 2 0.325865 23.7681 12.4635 8.64431 
801 2 0.389702 3.77214 17.3924 10.8304 
858 1 -0.532686 1.44421 12.6652 10.9515 
958 1 -0.33156 6.13018 16.659 11.0097 
964 1 -0.399874 4.32798 15.2009 9.7954 
967 1 -0.344811 3.88756 12.9346 10.7832 
999 2 0.366679 2.8572 13.4729 8.10635 
1256 2 0.352058 2.50041 17.3641 12.8382 
1280 1 -0.40576 1.92672 16.3423 9.31077 
1365 1 -0.384497 4.71085 12.5453 13.2338 
1423 2 0.399941 3.60581 18.2587 8.46654 
65 2 0.379186 11.0812 13.7122 9.06769 
166 2 0.359813 14.6297 13.144 12.6635 
187 2 0.363126 11.7396 16.2381 9.23995 
204 2 0.35957 10.3558 14.5369 10.8614 
231 2 0.355327 13.7774 16.9793 11.3131 
243 1 -0.400638 9.22406 13.2399 13.0911 
316 2 0.346557 11.6592 13.0389 12.077 
473 2 0.375475 13.0793 14.2133 9.41362 
570 2 0.370607 12.7312 18.6405 12.9865 
613 1 -0.336555 13.7259 14.9406 6.86654 
677 1 -0.390269 11.1497 17.987 7.34625 
876 1 -0.575681 15.3612 15.632 13.2286 
922 2 0.325432 15.765 18.2008 13.4435 
942 1 -0.375065 14.6074 16.4502 8.75629 
968 1 -0.348364 8.24035 13.9285 8.98342 
969 1 -0.409454 9.76484 13.6408 6.94029 
974 1 -0.365713 8.38941 16.0463 10.2778 
980 2 0.416562 8.22895 18.3324 11.8921 
986 1 -0.395163 9.62642 18.0244 9.36019 
1233 1 -0.507347 9.14532 12.3297 10.7172 
1271 2 0.338499 11.0671 16.7171 12.0973 
1344 2 0.380211 8.97044 16.0249 7.56553 
1379 1 -0.496201 8.88316 15.6356 12.6826 
1402 1 -0.508477 15.4421 14.9187 10.732 
1481 2 0.334862 12.9937 14.5521 12.1603 
200 1 -0.38751 20.7653 15.9456 12.7699 
624 1 -0.368156 16.867 17.4569 8.35912 
647 2 0.348213 20.5795 13.1318 12.0265 
654 2 0.360934 20.0703 16.7237 8.59601 
720 2 0.335242 17.8417 15.869 12.5024 
730 2 0.335577 16.9486 12.7946 13.0122 
827 1 -0.581224 17.6583 15.7245 9.88032 
896 2 0.375202 22.6513 12.9337 11.6478 
927 1 -0.498465 21.7225 14.405 9.00578 
950 1 -0.396646 0.170823 14.7594 10.2627 
995 2 0.346329 19.1344 17.9273 11.0489 
1006 2 0.335622 17.5584 13.2772 10.8012 
1119 2 0.377067 18.4325 15.5671 7.11454 
1250 1 -0.637723 21.2789 12.3288 7.59725 
1260 1 -0.183927 23.206 15.6794 12.5259 
1279 2 0.380645 16.8798 12.5517 8.29244 
1302 2 0.373811 0.426887 14.9558 7.58825 
1326 1 -0.64033 19.897 15.0016 10.6305 
1354 1 -0.366868 0.0764787 18.1013 12.7772 
1412 2 0.38802 21.8205 16.7918 10.3887 
1487 2 0.399785 16.0504 14.3802 8.01899 
1503 2 0.397809 23.2701 17.2782 8.53538 
167 2 0.391306 0.40549 22.4078 7.94757 
521 2 0.419842 6.60355 21.8982 10.558 
551 1 -0.234771 0.796606 19.5764 6.72714 
583 2 0.348361 1.40822 21.2659 11.4151 
609 2 0.40871 6.43891 23.4018 8.67388 
621 1 -0.311249 8.06465 19.9069 9.21327 
656 1 -0.344694 2.69345 21.1689 8.81147 
990 1 -0.430699 3.56279 19.9154 10.8002 
1031 1 -0.34705 0.432725 20.1173 9.04175 
1037 1 -0.370096 2.63603 23.6855 9.05292 
1039 2 0.389908 5.2586 20.3392 8.56713 
1053 1 -0.37495 4.10356 21.1652 12.9234 
1056 1 -0.362002 7.00427 24.1177 12.7546 
1059 1 -0.364257 4.52342 23.653 12.9618 
1082 2 0.370546 6.47234 18.4422 7.63659 
1146 2 0.367336 1.21632 23.8888 11.4619 
1198 2 0.412509 4.57435 22.4268 10.5236 
1335 1 -0.204276 6.36772 20.2041 12.7976 
1345 1 -0.398922 1.43823 18.4675 10.642 
1363 1 -0.360066 6.00549 19.0841 10.6112 
1426 2 0.403495 5.72209 21.4629 7.37422 
76 2 0.410573 9.52932 19.7389 12.2774 
163 2 0.357683 13.4083 23.1563 13.1844 
356 2 0.415425 10.5728 20.2652 8.58431 
442 2 0.389516 12.1625 21.4193 8.5045 
471 2 0.339364 11.4127 23.8729 9.74431 
571 1 -0.425773 14.157 22.2312 6.9186 
576 2 0.393374 14.2862 19.8152 11.5729 
610 1 -0.34671 8.21849 20.5785 6.69717 
628 1 -0.281636 14.5254 20.5674 8.81394 
722 2 0.388643 10.3749 22.2908 7.35358 
743 1 -0.518558 8.85999 23.6329 9.05185 
744 1 -0.403742 8.13631 23.0867 6.6183 
746 2 0.354614 12.1231 24.1477 7.02923 
944 1 -0.317957 13.1506 18.4735 8.78776 
976 2 0.365656 16.2629 18.1238 10.8797 
989 1 -0.279172 9.22778 21.702 10.4915 
1003 1 -0.469249 11.6235 18.6776 10.6438 
1009 1 -0.41792 13.8275 22.126 10.6746 
1010 1 -0.332823 11.5648 21.0677 11.1112 
1011 1 -0.411883 15.5429 21.8355 12.6745 
1051 1 -0.432835 14.0393 23.9002 8.87286 
1055 1 -0.240346 8.08161 21.9418 12.7001 
1176 2 0.316966 11.6293 23.6245 11.941 
159 2 0.406999 22.1588 18.4866 7.119 
233 2 0.363216 19.7969 18.7811 8.28768 
237 2 0.406421 18.6432 23.0523 7.63435 
248 2 0.411092 19.6132 22.806 10.0377 
295 2 0.396158 22.4856 18.9079 10.4987 
643 1 -0.343569 16.9121 19.8743 8.88482 
644 2 0.404633 16.5366 22.5621 8.28528 
694 2 0.378984 22.2314 20.9934 13.33 
695 2 0.399506 19.1762 21.1025 9.03827 
774 2 0.387274 23.0792 22.6382 6.38208 
949 1 -0.471707 17.9377 20.5159 11.0936 
972 1 -0.411382 21.3829 18.5408 12.9347 
979 1 -0.378599 20.676 21.0992 6.79294 
1000 1 -0.414874 21.8424 21.1298 9.11988 
1014 1 -0.458523 18.0547 20.4278 6.67753 
1021 1 -0.494409 20.4651 20.3586 11.251 
1032 1 -0.348743 17.6957 22.8519 12.1622 
1036 1 -0.296697 21.1647 24.306 11.488 
1092 1 -0.280579 22.1727 23.5613 9.41316 
1325 2 0.355329 22.915 22.0007 11.3287 
1331 2 0.41751 18.4932 24.1676 9.29374 
1361 2 0.424292 16.334 22.4364 10.1636 
1407 1 -0.4148 20.1057 22.4173 12.6189 
1 1 -0.291697 4.32594 24.6921 7.47673 
72 2 0.389552 1.66931 24.6126 6.71101 
227 2 0.398679 6.46012 28.6411 12.1168 
363 1 -0.177656 2.39919 29.9151 7.3192 
370 1 -0.248198 4.35937 28.489 7.10863 
411 2 0.393248 1.64178 30.438 12.3086 
717 1 -0.29176 3.53273 28.872 10.9964 
721 1 -0.311695 7.312 29.36 9.75766 
723 1 -0.268654 5.42939 25.7044 9.50567 
731 2 0.389562 5.50083 26.6254 11.8227 
777 1 -0.253077 1.88523 30.073 9.68364 
800 1 -0.238279 5.19764 28.1216 9.37736 
847 2 0.368996 6.97425 27.6104 6.93441 
1045 1 -0.171709 0.409929 26.5293 10.9016 
1047 1 -0.289538 3.68312 24.8499 11.0232 
1058 1 -0.383134 7.6404 25.211 10.5362 
1097 1 -0.297715 2.469 26.7665 11.9875 
1099 1 -0.287606 0.446605 24.8617 9.1465 
1109 2 0.448461 2.80841 26.705 9.21075 
1385 2 0.456267 1.6522 27.4618 8.01514 
7 2 0.316723 12.7266 30.2536 9.56662 
22 2 0.361715 9.87916 23.9591 13.174 
116 2 0.350079 11.5449 25.9019 6.5182 
297 2 0.35682 12.5981 28.2991 7.25894 
321 1 -0.630035 11.8426 29.0307 11.7486 
397 2 0.390992 9.87538 29.9466 9.99527 
670 2 0.298197 13.2953 26.9123 13.0936 
672 1 -0.598896 15.071 27.5906 8.67813 
725 1 -0.36284 8.19805 30.0162 7.45453 
804 1 -0.541061 9.8122 28.145 7.26647 
806 1 -0.514313 11.1176 27.8018 9.46548 
915 2 0.334706 13.7719 27.6987 10.8008 
965 2 0.360408 9.7954 25.7842 8.49457 
1076 1 -0.620839 12.9861 26.2077 8.69713 
1091 2 0.34287 14.2874 25.0115 11.2803 
1117 1 -0.359235 9.72008 28.3936 12.7848 
1142 2 0.332716 11.0659 26.215 11.6334 
1375 2 0.391134 7.59143 26.9346 8.53689 
1505 1 -0.376328 8.83872 27.5155 10.6371 
186 2 0.390861 17.9531 27.9928 9.19153 
346 2 0.374024 19.1185 29.9049 11.6388 
379 1 -0.456384 16.5696 28.2449 6.74615 
412 2 0.476279 21.9593 26.511 9.63873 
499 2 0.406151 23.7048 28.3525 12.7918 
566 2 0.319337 16.7104 30.1955 11.8321 
760 1 -0.365389 20.4413 28.6216 8.25934 
778 1 -0.193006 23.7066 28.6513 9.8322 
855 2 0.376415 18.3476 27.7815 11.9685 
1012 1 -0.413548 17.2228 25.2324 11.3705 
1033 1 -0.248311 19.5212 25.9529 10.8508 
1034 1 -0.238864 21.2644 24.7575 7.53098 
1067 1 -0.288848 16.0469 25.3813 9.14343 
1071 1 -0.3039 17.5352 25.9784 7.23833 
1072 1 -0.251729 22.7917 28.3226 7.63748 
1074 1 -0.608542 18.4386 29.8568 7.3815 
1085 1 -0.27656 21.491 29.3397 10.3837 
1093 1 -0.214018 19.6546 26.3125 8.42359 
1096 1 -0.235541 23.2998 26.0058 7.20153 
1141 1 -0.694958 15.9898 26.9402 12.8285 
1160 2 0.341942 16.6612 27.8793 10.6136 
1257 2 0.364065 18.8725 30.541 9.83169 
1453 1 -0.237087 20.8306 27.6998 12.0494 
1476 1 -0.301216 22.4957 26.022 12.5818 
443 1 -0.334518 1.47426 35.556 7.24509 
451 1 -0.440757 4.28552 35.4045 9.06809 
452 1 -0.320221 2.58743 33.6702 8.37633 
490 1 -0.282279 2.95945 32.0591 6.46329 
525 2 0.396761 1.80159 35.1538 10.4201 
705 2 0.381189 7.13771 31.9558 9.06114 
750 1 -0.366619 1.73455 32.4424 10.4325 
761 2 0.372069 7.62627 33.4316 7.10223 
779 1 -0.287199 6.82666 31.1181 11.5821 
783 1 -0.326637 4.62062 34.8078 11.6835 
787 1 -0.255948 3.33261 32.7516 12.2967 
844 1 -0.580787 6.70896 34.7308 9.15877 
1044 1 -0.29487 4.56368 30.6186 12.44 
1138 2 0.425647 4.59415 30.6376 8.78827 
1253 1 -0.359273 6.88776 33.6848 11.3985 
1336 2 0.391762 5.1184 33.0818 7.92116 
1438 2 0.364504 0.35199 32.9645 6.96442 
1448 2 0.423318 4.59455 32.6157 10.1297 
71 1 -0.658469 8.73451 35.7526 8.00254 
249 2 0.304724 14.5553 30.0066 6.82294 
254 1 -0.727926 12.9585 34.5217 7.43502 
327 2 0.343271 11.4717 33.9154 11.7586 
375 2 0.336214 11.3747 35.6454 9.35244 
381 2 0.345911 11.2016 30.1489 6.96337 
384 1 -0.625475 10.1435 32.3698 13.5211 
436 2 0.30065 12.4421 32.0547 7.08764 
536 2 0.34236 13.4301 0.0137815 13.9916 
544 2 0.337253 14.4646 29.997 11.8197 
569 2 0.34195 9.72699 31.8405 8.83353 
627 2 0.415248 13.5817 34.0101 12.5438 
674 1 -0.564089 14.8574 36.1223 11.4637 
724 1 -0.602834 13.6666 34.5369 9.8846 
755 1 -0.613549 14.1502 32.2923 10.7463 
773 1 -0.642974 8.90844 34.4467 12.6769 
791 1 -0.349494 15.8552 32.6336 12.5613 
829 2 0.340213 12.4022 0.331758 11.4636 
846 2 0.351213 9.12755 34.1827 10.0145 
877 1 -0.62171 10.4427 33.9911 7.44584 
1064 1 -0.427959 12.3503 31.4493 12.436 
1121 1 -0.332217 8.4863 30.4841 13.3477 
1133 2 0.377999 9.43578 31.6958 11.2594 
1210 2 0.333214 11.7903 32.7343 9.75267 
49 2 0.299175 15.9601 30.1978 9.01689 
139 2 0.316002 18.3543 35.0132 7.9066 
339 2 0.432122 21.0848 33.9462 12.6214 
427 1 -0.339867 20.6378 35.4917 10.1278 
450 1 -0.452039 19.6086 33.132 10.0537 
580 2 0.335935 16.8155 32.5261 9.9354 