ITEM: TIMESTEP
105
ITEM: NUMBER OF ATOMS
1824
ITEM: BOX BOUNDS pp pp pp
0.0000000000000000e+00 2.5336077000000000e+01
0.0000000000000000e+00 3.8850265000000000e+01
0.0000000000000000e+00 2.8337209999999999e+01
ITEM: ATOMS id type q x y z 
73 2 0.274092 1.0722 4.79176 3.30743 
457 2 0.33496 5.51664 1.80909 3.81746 
497 2 0.352557 1.69514 5.7436 0.793359 
784 2 0.34377 6.05521 3.7082 1.82885 
807 2 0.361767 5.54648 2.27244 7.02201 
823 2 0.3005 2.22094 4.77414 6.51398 
1034 1 -0.471799 4.9191 6.13657 0.377765 
1052 1 -0.600965 0.831474 1.01831 3.25425 
1053 1 -0.616614 2.72233 2.62583 3.22889 
1059 1 -0.56216 3.31283 1.69027 5.44342 
1205 1 -0.498145 4.37126 1.85516 1.45345 
1289 2 0.306225 0.783649 2.60504 5.3712 
1440 2 0.303256 3.87682 5.33349 2.76828 
1447 2 0.331358 0.822451 2.80207 1.21735 
1588 2 0.359832 3.06788 3.7609 0.150958 
1721 2 0.302105 4.90244 3.97786 4.98807 
57 2 0.332529 11.0647 0.68573 3.17042 
468 2 0.317056 9.49324 0.597252 1.31868 
683 2 0.353049 11.8984 5.20847 0.849057 
703 2 0.316176 7.43259 0.560953 7.62594 
779 2 0.343204 9.24207 4.30856 6.37012 
808 2 0.285622 10.3268 2.74522 4.20511 
1204 1 -0.710913 6.70397 0.96121 1.57197 
1211 1 -0.911159 7.58387 4.45362 4.11942 
1215 1 -0.750206 8.36959 2.72949 2.41962 
1257 2 0.30802 9.89193 1.4167 6.50575 
1328 1 -0.698948 9.02638 6.45645 4.60773 
1336 1 -0.66329 10.732 6.36015 6.48622 
1357 1 -0.642539 10.6117 2.9852 1.21197 
1428 2 0.306987 12.4702 3.67404 3.25011 
1574 2 0.303882 6.94234 5.50682 1.86851 
1592 2 0.322922 9.67368 5.14266 2.55897 
1603 2 0.314241 11.6932 5.41219 4.34069 
1718 2 0.295925 7.49844 2.25918 5.43207 
1766 2 0.300153 8.0902 0.503547 3.87258 
4 2 0.318875 14.5365 5.88183 3.4772 
210 2 0.311422 18.6833 0.363757 4.29218 
387 2 0.363825 14.2154 4.33914 5.56143 
460 2 0.316906 14.0914 1.2439 4.27795 
793 2 0.365314 13.9859 4.83748 0.899931 
810 2 0.332192 17.0963 0.737282 6.11145 
915 2 0.335169 17.9849 38.7877 2.12261 
971 2 0.338349 17.0183 5.09656 2.64449 
1114 2 0.334509 17.2861 2.06515 2.70483 
1127 2 0.280951 12.4486 3.27651 6.46421 
1239 2 0.281817 12.2286 0.474421 6.09276 
1319 1 -0.627479 18.3824 1.65388 0.107837 
1325 1 -0.686076 15.1592 2.18352 7.11073 
1333 1 -0.652425 16.1475 2.91463 4.8397 
1340 1 -0.669813 15.1193 6.30674 6.84277 
1348 1 -0.562861 16.7201 5.33479 5.1624 
1356 1 -0.617274 16.5279 3.38187 0.596952 
1363 1 -0.446997 12.9111 1.90563 1.42766 
1367 1 -0.642903 14.9292 3.09418 2.53729 
1462 2 0.317908 19.0361 4.56651 7.3496 
1523 2 0.351162 15.3571 0.736577 1.48595 
36 2 0.308163 21.3816 2.14359 4.0158 
88 2 0.309595 24.0931 38.815 4.88193 
222 2 0.34547 19.5066 4.27014 1.02012 
684 2 0.283401 23.9988 4.971 4.80589 
977 2 0.316851 23.8464 2.23667 2.80591 
990 2 0.341587 23.9067 4.94758 1.45814 
1009 1 -0.632815 19.1424 6.11192 5.08513 
1015 1 -0.654922 25.079 0.165897 1.08591 
1024 1 -0.485676 19.6642 6.30489 2.67995 
1032 1 -0.38306 21.6705 4.96314 3.13147 
1033 1 -0.658066 20.9277 4.39089 5.4711 
1072 2 0.307075 23.2194 2.56074 5.86727 
1084 2 0.33931 22.3139 0.498345 0.971484 
1218 2 0.318618 18.688 2.72154 5.6074 
1343 1 -0.63972 22.0841 3.13687 1.11616 
1366 1 -0.897479 20.6996 0.165302 5.76475 
1383 2 0.323567 20.0616 1.93221 2.09639 
1414 2 0.364535 21.6971 6.13017 0.7006 
1544 2 0.357268 18.878 3.90836 3.77571 
1549 2 0.330691 20.675 2.25728 7.19381 
6 2 0.360852 1.20831 9.21905 1.27408 
56 2 0.329968 1.71214 12.2395 1.21427 
234 2 0.378694 3.42265 10.3468 2.31626 
529 2 0.341743 5.74939 9.60557 4.79779 
679 2 0.339577 1.2364 11.8913 3.5659 
843 2 0.291353 3.94222 6.40613 6.16875 
1001 2 0.316101 6.58829 10.0083 2.07718 
1010 1 -0.328382 3.38068 7.88225 1.03752 
1023 1 -0.747017 1.87255 7.56074 3.13299 
1036 1 -0.397841 1.44983 9.09054 7.33656 
1161 1 -0.638981 1.6874 9.52329 4.79738 
1182 1 -0.642846 5.14212 12.079 1.01932 
1184 1 -0.507781 5.05967 10.9519 7.0197 
1185 1 -0.572669 3.65887 11.1016 4.8105 
1195 1 -0.312508 4.76089 9.72171 0.0346505 
1563 2 0.369385 3.74741 8.71199 6.08593 
1690 2 0.318315 4.2599 8.31647 3.51365 
1740 2 0.307738 1.18407 6.96609 5.54744 
1747 2 0.332142 2.05592 11.6453 6.73261 
363 2 0.291027 6.35601 6.62898 4.91071 
623 2 0.305342 7.94052 12.7264 1.99167 
958 2 0.299443 6.96816 7.58716 2.2371 
960 2 0.317134 9.36154 7.366 0.783207 
969 2 0.315672 9.73629 9.15447 2.51153 
970 2 0.329667 12.0615 7.15742 2.49382 
979 2 0.329648 10.0897 9.79919 5.98607 
997 2 0.298462 11.8527 11.2614 4.0269 
1173 1 -0.625954 7.46773 10.0786 6.62005 
1175 1 -0.661467 12.4358 7.58326 28.2013 
1181 1 -0.883033 7.95556 8.72278 4.4874 
1196 1 -0.935365 10.3753 11.5663 1.64487 
1296 2 0.345754 10.9087 8.2799 4.45774 
1313 1 -0.687169 12.147 9.60889 1.54183 
1532 2 0.29094 8.75341 11.095 4.00948 
1761 2 0.361851 6.76071 12.5039 5.78846 
1768 2 0.350762 8.48997 7.64151 6.83085 
35 2 0.29854 17.6801 10.0143 4.8332 
74 2 0.327934 14.5109 7.855 1.60922 
351 2 0.305182 16.6401 5.98714 0.543606 
388 2 0.34496 13.5314 10.115 6.15805 
485 2 0.339533 18.1514 12.8997 1.05028 
842 2 0.326698 17.637 8.07362 2.79288 
966 2 0.336117 16.5459 8.61618 0.11963 
988 2 0.286408 16.0172 10.1218 6.8832 
996 2 0.371353 18.8887 9.94432 0.546033 
1234 2 0.326841 17.4317 12.8872 6.18929 
1247 2 0.357098 14.6475 10.5607 1.66213 
1337 1 -0.650352 13.3686 9.1249 3.77798 
1341 1 -0.57727 14.8481 12.5303 5.94483 
1345 1 -0.656627 13.0676 7.19215 5.61135 
1355 1 -0.651341 15.3315 10.6945 4.21079 
1364 1 -0.599043 16.5366 11.2633 28.2328 
1368 1 -0.660289 17.1843 10.8851 2.39037 
1391 2 0.345821 15.4617 7.95824 4.72135 
1446 2 0.323629 18.5394 12.8069 3.73306 
1727 2 0.286589 13.0209 12.5206 1.82599 
40 2 0.318972 24.0316 9.01837 6.54236 
89 2 0.313161 25.0439 10.023 3.05154 
642 2 0.341255 23.9956 6.6738 7.3277 
675 2 0.331453 21.9776 6.79336 5.38946 
855 2 0.38157 23.3115 8.71761 0.953347 
922 2 0.334611 22.4461 9.86168 3.71406 
1016 1 -0.613993 21.1025 12.4829 3.34556 
1030 1 -0.638787 25.0381 7.13574 1.9577 
1043 1 -0.554229 22.7761 7.21768 3.03837 
1054 1 -0.659328 23.5323 12.3575 3.91793 
1135 2 0.351407 21.3756 10.9678 1.18515 
1327 1 -0.422153 20.7885 8.43907 1.97752 
1358 1 -0.687633 19.6146 10.4281 3.11083 
1382 2 0.313768 20.166 8.43852 4.71816 
1423 2 0.260783 19.7586 11.2241 6.07329 
1432 2 0.32732 24.0483 11.3228 1.08982 
1451 2 0.335671 24.8593 10.9186 5.89289 
1579 2 0.314199 24.7707 7.99005 4.45874 
1581 2 0.32797 21.9344 11.1277 5.62323 
32 2 0.338258 4.20733 18.2323 5.03215 
325 2 0.325806 3.4645 17.0848 0.196395 
330 2 0.299964 5.24862 14.6914 1.7037 
335 2 0.322953 3.82829 13.5427 5.7597 
517 2 0.338206 6.62177 19.9104 3.55258 
549 2 0.340585 1.26146 14.7341 0.230065 
701 2 0.31471 1.98754 16.0584 5.26651 
1013 1 -0.73736 1.80032 14.5588 2.75458 
1101 2 0.312906 0.481054 13.5489 4.95629 
1168 1 -0.621764 1.43206 18.6782 0.889066 
1192 1 -0.667092 2.38814 17.0527 2.60294 
1203 1 -0.723716 3.72924 12.9223 2.99011 
1288 2 0.322431 5.63416 15.5573 6.38356 
1476 1 -0.599804 1.9757 18.5531 6.30207 
1526 2 0.279696 5.14519 17.526 2.34198 
1529 2 0.296035 4.05417 15.4714 3.9775 
1576 2 0.314944 5.97578 12.2072 3.74791 
1633 1 -0.586719 0.856593 18.3112 4.10497 
38 2 0.276969 10.6971 13.9351 3.018 
190 2 0.303709 8.08889 15.4569 1.48698 
377 2 0.309959 6.88609 15.0464 4.23732 
514 2 0.336956 6.9235 18.4518 0.392729 
654 2 0.345787 7.94247 18.7647 7.40026 
1124 2 0.393361 9.31537 18.5259 4.69254 
1165 1 -0.652995 6.74903 17.7158 5.26547 
1189 1 -0.456418 8.53138 16.2953 6.32485 
1197 1 -0.593001 9.36153 15.9693 4.03237 
1223 2 0.304338 9.34397 13.4624 5.13458 
1275 2 0.381236 10.2579 17.571 2.13557 
1320 1 -0.579383 10.7715 17.4644 6.62749 
1344 1 -0.486453 11.838 16.7186 4.40714 
1539 2 0.375617 10.5717 16.4164 0.0880493 
1566 2 0.326271 10.7645 14.527 1.01309 
1636 1 -0.692945 7.69603 17.5938 2.96931 
1674 2 0.359579 12.3772 19.0974 5.19113 
1734 2 0.322296 11.23 14.955 6.3445 
59 2 0.314694 16.41 17.0744 6.89227 
157 2 0.307878 15.7576 16.0494 2.99337 
160 2 0.339177 15.0459 19.3353 5.80945 
163 2 0.339597 13.1528 15.6946 2.16544 
681 2 0.316177 15.7687 13.0811 3.38348 
788 2 0.322723 17.5004 18.5735 4.37803 
835 2 0.305963 18.2029 15.6571 4.79412 
974 2 0.299495 17.7824 15.1573 2.19331 
1151 2 0.32228 15.0862 13.7342 0.742801 
1283 2 0.339391 16.108 18.8674 1.0042 
1349 1 -0.661994 15.8154 14.8223 5.57329 
1352 1 -0.636977 14.288 16.7907 5.11737 
1426 2 0.336546 18.2658 17.7251 1.32167 
1591 2 0.305619 13.2302 14.1168 4.67717 
1623 1 -0.278586 12.7862 17.5062 0.177059 
1777 1 -0.502313 12.7068 18.2762 2.61528 
1785 1 -0.602355 15.0079 18.4075 3.36718 
26 2 0.362002 22.1904 17.0591 2.85439 
216 2 0.346637 25.2833 16.6118 2.32612 
243 2 0.321277 24.5917 15.6278 3.84399 
503 2 0.352417 24.0021 18.8495 1.3179 
538 2 0.314425 25.1004 14.9515 6.94763 
634 2 0.329897 24.6771 16.9625 5.80992 
920 2 0.344112 23.6766 19.0911 4.00956 
968 2 0.351836 23.0717 15.5063 1.29761 
994 2 0.296307 18.8994 15.0755 7.52641 
1040 1 -0.678996 23.4007 13.0464 6.43228 
1048 1 -0.684186 22.4026 15.3882 6.90349 
1051 1 -0.708426 24.8711 13.6066 2.06975 
1075 2 0.355002 19.7654 17.5343 2.82802 
1098 2 0.349333 20.6207 13.7903 5.67344 
1305 2 0.376384 22.3658 13.7873 1.59642 
1393 2 0.334202 24.9175 19.2712 7.06818 
1406 2 0.328912 0.0439381 16.628 0.16612 
1463 2 0.344561 20.1872 13.1455 0.796916 
1473 1 -0.666115 20.3253 14.8788 3.06297 
1481 1 -0.650613 20.7863 16.3643 5.11286 
1494 1 -0.39104 20.9557 18.2968 0.322946 
1502 1 -0.436419 20.4678 15.789 0.659576 
1515 1 -0.649696 20.732 18.9003 4.71312 
1535 2 0.387481 22.7423 14.6922 4.36431 
1616 2 0.343551 22.6605 17.8018 6.05301 
1757 2 0.30814 19.3813 17.8673 6.76285 
58 2 0.314199 0.104225 23.1105 3.0058 
184 2 0.316099 6.7523 21.8003 1.14043 
336 2 0.435409 5.19608 22.7198 6.3892 
462 2 0.35473 2.02887 24.8375 4.59408 
545 2 0.315039 1.35781 24.2368 1.48869 
761 2 0.305563 6.20486 25.0017 0.0789555 
967 2 0.342931 5.39562 21.654 3.99517 
1092 2 0.33479 3.09022 19.5792 3.12439 
1103 2 0.284981 4.6944 20.166 0.700415 
1139 2 0.361244 1.19717 20.7998 5.05077 
1200 1 -0.378485 3.61656 20.5263 6.45273 
1272 2 0.346077 24.8841 24.4685 5.27546 
1396 2 0.32698 1.93654 21.3887 0.38872 
1508 1 -0.539618 3.01902 22.5927 5.11442 
1542 2 0.298081 2.67628 22.0822 2.64402 
1625 1 -0.656423 0.524689 20.3115 2.58446 
1628 1 -0.605283 6.05233 20.0548 6.10672 
1632 1 -0.434374 4.64136 24.1499 3.81258 
1640 1 -0.208653 5.57594 25.62 5.55281 
1641 1 -0.632811 3.43746 25.6631 2.23634 
1685 2 0.298986 4.58003 23.3122 1.31883 
96 2 0.358046 10.4642 20.214 3.63068 
392 2 0.346583 8.64803 24.6837 1.12609 
704 2 0.303132 11.7607 22.6296 1.77713 
798 2 0.294546 12.7301 24.1969 4.34778 
949 2 0.396388 7.95609 22.6932 4.9038 
1121 2 0.302454 11.2345 25.7231 1.18328 
1409 2 0.362934 8.51284 21.0017 5.43746 
1455 2 0.373614 11.1493 19.8104 1.19055 
1522 2 0.39929 7.00815 23.492 6.47071 
1596 2 0.371542 11.6384 22.1399 6.28687 
1629 1 -0.389606 7.93599 25.4914 4.81906 
1637 1 -0.586814 7.04391 24.037 2.95171 
1660 1 -0.628104 9.65438 22.4893 0.161633 
1667 1 -0.462143 8.83479 22.2738 2.51067 
1670 1 -0.497116 9.90314 24.1361 6.01566 
1671 1 -0.606178 8.5246 19.8254 1.87947 
1750 2 0.330844 9.93626 24.9263 3.30777 
1813 1 -0.78802 10.6727 22.7221 4.10032 
206 2 0.366922 18.5003 22.693 7.00629 
223 2 0.333777 18.8392 20.6808 3.75353 
382 2 0.345357 14.6439 22.5994 5.58422 
458 2 0.339085 14.0385 20.3284 1.59514 
781 2 0.335006 18.3973 25.2706 3.45008 
811 2 0.306593 16.7996 24.0814 5.9065 
830 2 0.320766 17.3345 22.8517 3.69682 
851 2 0.303769 15.1814 25.1977 3.95441 
975 2 0.313709 16.3509 21.6812 1.08307 
1295 2 0.325963 13.0562 20.9787 3.89897 
1459 2 0.334853 13.8719 23.6269 0.684311 
1550 2 0.331885 13.9687 26.0041 1.38935 
1812 1 -0.684438 16.1746 24.4305 1.65143 
1818 1 -0.652971 16.9748 21.1077 5.94532 
1819 1 -0.656093 15.8496 20.7738 3.73552 
1823 1 -0.916533 14.6649 22.848 2.92762 
8 2 0.313998 18.9968 20.3465 1.36572 
22 2 0.304699 18.7136 23.2983 1.21176 
195 2 0.345992 21.6774 21.4138 4.80349 
204 2 0.30494 22.8792 23.8343 0.884608 
490 2 0.334445 20.9751 22.0161 1.85863 
504 2 0.38483 21.9546 25.7618 4.31223 
820 2 0.343136 22.1233 19.6935 7.03549 
1102 2 0.301548 24.9372 22.0521 0.311148 
1105 2 0.332718 23.7822 22.2835 7.15486 
1291 2 0.320722 20.0966 23.0995 4.94873 
1466 1 -0.732498 23.4875 21.3042 2.3801 
1480 1 -0.731689 20.5933 24.2169 2.73166 
1488 1 -0.579307 24.108 25.7212 2.9156 
1509 1 -0.633431 21.5569 19.6488 2.43496 
1519 1 -0.670327 22.8784 23.5631 3.45328 
1683 2 0.33351 22.4987 20.4808 28.2378 
1765 2 0.305364 24.1878 21.5023 5.0205 
1822 1 -0.659232 19.4784 20.4915 6.32543 
7 2 0.377399 1.18385 26.4626 3.15343 
37 2 0.379221 1.91709 27.8662 0.983542 
181 2 0.359559 1.16782 26.1886 0.535463 
200 2 0.39452 3.57374 30.088 5.06985 
483 2 0.334612 2.68367 32.1301 28.1249 
699 2 0.347386 5.10843 31.7196 4.43219 
1008 2 0.354983 5.87783 31.9116 6.39087 
1394 2 0.38235 2.93631 26.3647 5.42701 
1422 2 0.383803 5.88545 26.4337 2.85981 
1441 2 0.342031 4.59089 27.6735 0.289649 
1443 2 0.383426 3.68279 27.3137 6.90627 
1492 1 -0.51198 1.52211 28.5107 4.59381 
1510 1 -0.31909 1.24627 30.3855 3.01387 
1599 2 0.334921 2.25357 29.2368 7.12688 
1617 1 -0.374021 3.59665 27.9727 3.2622 
1648 1 -0.516745 2.17384 32.1432 6.2878 
1649 1 -0.444911 5.471 28.0806 5.10987 
1659 1 -0.596924 4.2326 32.1654 2.14802 
1665 1 -0.446271 3.25239 29.9286 1.57896 
1742 2 0.330271 5.64267 29.6123 2.75742 
77 2 0.299006 8.55988 32.5973 4.3863 
357 2 0.364502 11.4809 30.9743 6.12231 
372 2 0.289486 12.2787 26.8024 4.01226 
399 2 0.288683 7.69383 30.6447 3.47656 
539 2 0.323877 7.6007 31.2905 0.908347 
651 2 0.338371 9.98356 28.0096 2.95085 
778 2 0.352937 7.02431 30.164 5.69709 
965 2 0.314144 8.16205 26.549 2.05378 
1088 2 0.328788 11.7196 30.0519 28.083 
1158 2 0.286408 7.47258 28.5138 1.106 
1253 2 0.357136 12.6105 27.7323 6.65819 
1538 2 0.302511 10.1324 30.3853 2.03619 
1620 1 -0.752065 9.6129 29.6081 5.11376 
1631 1 -0.644957 10.3051 28.0034 0.337471 
1652 1 -0.680566 7.82898 27.9787 4.27524 
1728 2 0.333484 10.0515 26.9509 5.64851 
1769 1 -0.669186 12.3295 28.4405 1.85484 
1793 1 -0.673425 11.9429 29.5886 4.08147 
1801 1 -0.741346 9.08255 31.3929 6.89478 
5 2 0.336102 17.2655 29.1551 1.21597 
9 2 0.319298 14.2876 25.9487 6.03081 
50 2 0.337351 19.0409 30.43 3.66005 
324 2 0.371261 16.4048 29.4893 4.38023 
613 2 0.355966 13.2799 30.8426 1.74092 
840 2 0.360806 18.3905 31.8205 5.30587 
856 2 0.356852 15.9892 30.6746 2.79323 
921 2 0.362354 14.3618 28.279 3.69417 
1497 1 -0.647771 18.4324 27.8414 3.07517 
1571 2 0.323871 16.9154 26.9398 5.08821 
1572 2 0.358858 13.8396 31.4961 3.7102 
1784 1 -0.654708 16.208 26.9483 2.28979 
1789 1 -0.570789 15.2598 28.207 6.759 
1792 1 -0.511063 13.9077 29.9925 5.77951 
1796 1 -0.661504 18.8446 28.6687 5.49214 
1797 1 -0.437321 15.6596 31.8355 5.95674 
1804 1 -0.584478 17.0669 29.8466 6.79069 
1811 1 -0.624445 14.7166 28.6461 1.01902 
67 2 0.361893 24.0877 29.1063 6.64716 
309 2 0.392875 20.7133 27.6379 4.27124 
844 2 0.382426 21.4644 30.8287 2.54171 
959 2 0.365302 0.168207 30.5968 5.31869 
1236 2 0.340385 18.2044 32.1037 1.80007 
1246 2 0.366334 22.1483 27.3459 6.46714 
1256 2 0.409426 25.0281 28.2527 2.25134 
1465 1 -0.334766 22.502 27.569 2.19879 
1489 1 -0.402719 21.1215 29.7375 5.86383 
1493 1 -0.560909 20.8837 32.1244 6.66563 
1499 1 -0.599204 23.0842 29.5541 0.688576 
1500 1 -0.400066 24.6935 27.2047 4.89408 
1507 1 -0.302164 23.0166 28.9576 4.18478 
1520 1 -0.339978 24.0713 30.726 2.68338 
1692 2 0.331968 0.291175 30.468 0.297285 
1716 2 0.352084 20.4263 29.2636 1.73384 
1735 2 0.403047 22.8114 31.3711 4.98147 
1781 1 -0.59396 20.2902 26.5394 1.97923 
175 2 0.317361 4.11531 36.1181 3.16944 
337 2 0.363342 2.26296 0.484934 0.895914 
352 2 0.374633 0.467278 32.6473 1.97745 
393 2 0.33655 4.68002 34.534 1.12812 
541 2 0.341106 6.81395 33.7622 5.6204 
649 2 0.313753 2.12412 36.6157 1.5688 
853 2 0.404425 3.98128 33.8624 6.58087 
917 2 0.331326 4.84718 38.4573 5.64212 
1002 2 0.293459 5.92756 37.761 2.95356 
1063 1 -0.574097 1.69542 38.703 5.2957 
1089 2 0.364867 3.35445 0.0172648 3.2274 
1169 1 -0.420964 1.59202 34.6577 3.93327 
1172 1 -0.69056 5.28038 35.9174 5.75005 
1177 1 -0.488993 2.76882 36.3768 5.3561 
1228 2 0.368459 0.912975 37.1965 3.33865 
1260 2 0.331009 2.14968 33.8417 1.48535 
1262 2 0.371329 0.333553 36.9992 6.68443 
1304 2 0.377313 4.4828 34.0727 4.01588 
1427 2 0.325563 4.59392 37.7674 0.354546 
1624 1 -0.313413 2.45518 32.3529 3.88266 
1656 1 -0.403951 1.24408 34.488 6.47628 
215 2 0.334849 8.07985 35.868 6.82952 
349 2 0.312489 8.82034 37.1006 2.39596 
533 2 0.329181 9.11143 34.0926 2.23617 
635 2 0.335091 10.9515 35.531 28.2502 
636 2 0.339234 7.95835 33.4067 8.00504 
637 2 0.316607 11.7221 33.8771 6.19181 
653 2 0.342236 11.337 36.2273 6.53717 
804 2 0.305853 11.3293 32.3717 3.60153 
989 2 0.3264 7.44035 37.4851 5.54071 
1180 1 -0.737162 6.85521 35.3807 3.7203 
1268 2 0.320079 6.89198 36.0657 0.930274 
1329 1 -0.60988 12.2731 37.3445 4.32231 
1541 2 0.361361 10.9617 36.6635 2.04318 
1645 1 -0.662229 9.98348 37.9794 5.08853 
1653 1 -0.587509 9.32588 35.7081 4.40394 
1672 1 -0.691833 6.55986 33.1555 2.48198 
1739 2 0.31472 9.82525 33.8153 6.11874 
1800 1 -0.630999 11.6908 34.9934 3.80283 
230 2 0.367461 16.6749 34.986 1.8313 
321 2 0.30116 13.8987 35.649 5.81535 
467 2 0.32067 16.0348 37.2042 1.2735 
985 2 0.294486 14.7438 38.2244 6.83509 
1025 1 -0.530782 18.1314 36.6175 3.61522 
1248 2 0.360101 16.6305 35.0706 5.61895 
1273 2 0.363473 14.2301 35.9615 2.91429 
1321 1 -0.607516 13.2532 36.5075 0.429551 
1496 1 -0.462047 18.461 34.2308 3.58203 
1524 2 0.305729 15.8082 37.7636 4.12725 
1556 2 0.356871 13.2274 32.4861 6.6119 
1604 2 0.333436 18.9345 35.0104 7.40349 
1697 2 0.3513 13.9541 33.7181 4.05303 
1776 1 -0.636174 12.7417 34.3392 1.57544 
1778 1 -0.898904 18.0561 38.0215 28.0939 
1805 1 -0.527118 16.3162 33.003 3.77183 
1808 1 -0.624716 13.0712 38.3145 2.14686 
1814 1 -0.593311 14.9243 32.9612 1.67493 
13 2 0.369238 24.2878 35.6067 4.8302 
305 2 0.294844 21.1156 38.2705 3.20535 
611 2 0.371284 20.6246 32.7301 3.65569 
657 2 0.329815 22.3994 36.6585 5.80887 
690 2 0.304815 22.073 36.3407 0.772707 
836 2 0.407525 25.1069 32.9214 4.86243 
1017 1 -0.672324 19.4722 36.8865 1.53329 
1039 1 -0.693131 25.0884 36.4963 0.533739 
1079 2 0.352928 21.7488 35.2381 2.72176 
1122 2 0.318521 23.7238 37.482 2.67149 
1141 2 0.341134 19.879 34.4095 5.75798 
1412 2 0.340582 20.6123 35.9813 4.16206 
1472 1 -0.553898 19.3738 34.4594 1.34657 
1474 1 -0.593993 24.885 34.9843 2.5235 
1482 1 -0.40418 23.193 33.138 2.97325 
1501 1 -0.60838 22.4423 33.7682 5.47362 
1504 1 -0.668739 19.0116 37.1815 5.89349 
1516 1 -0.600614 21.5191 33.2233 1.04754 
1675 2 0.329706 24.0781 33.8934 0.28827 
127 1 -0.34885 25.1192 2.16539 13.568 
130 1 -0.558927 2.84433 6.29206 11.5449 
135 1 -0.680896 2.28112 1.79349 14.0512 
144 1 -0.626244 3.04193 2.70659 7.71685 
278 1 -0.643525 3.70165 0.08017 12.9231 
289 1 -0.622512 6.11163 3.26773 9.54074 
358 2 0.319292 5.81113 5.00778 13.6674 
612 2 0.332845 1.33672 0.688557 11.7374 
774 2 0.317987 4.06423 2.44135 11.4252 
832 2 0.319514 3.34036 4.36231 13.2549 
939 2 0.330531 5.93542 1.45513 13.2664 
1005 2 0.31575 0.0904789 0.960684 7.43313 
1058 1 -0.598326 4.56033 4.61833 8.11453 
1062 1 -0.581697 4.57356 1.33514 9.10436 
1067 2 0.330433 5.13259 5.32857 10.7351 
1087 2 0.420076 1.62245 6.2979 14.3067 
1271 2 0.302338 1.69227 1.82935 9.69054 
1702 2 0.343886 1.50575 3.91591 12.2363 
1720 2 0.351646 2.07511 4.53219 9.63088 
20 2 0.351296 9.97104 3.9977 11.3087 
24 2 0.340395 8.3711 1.09864 13.3233 
42 2 0.328822 7.62167 6.15457 12.5179 
232 2 0.331231 7.22788 1.00404 10.0331 
274 1 -0.554293 10.2275 5.80283 13.3483 
287 1 -0.661693 9.43743 3.50379 13.8363 
296 1 -0.674642 8.55661 3.13874 8.66737 
441 1 -0.706776 9.81908 0.94632 9.04505 
551 2 0.348849 12.1303 3.86599 13.8463 
647 2 0.346596 9.17152 2.09201 11.1803 
670 2 0.326208 12.0655 5.33815 10.7761 
689 2 0.324463 11.3383 3.04823 8.77609 
714 1 -0.569443 11.0001 1.69555 12.9831 
722 1 -0.678035 11.6731 0.89904 10.7503 
786 2 0.340533 7.73079 5.19144 10.0606 
927 2 0.331953 6.95374 4.75785 7.15751 
929 2 0.300842 7.04402 3.26977 12.1164 
1214 1 -0.678663 10.0427 5.27438 8.81606 
1235 2 0.351715 12.6572 5.78689 7.96462 
45 2 0.306247 18.2967 1.8474 13.8055 
194 2 0.390403 12.722 6.25971 12.6852 
212 2 0.311388 13.4501 1.31999 8.79378 
403 1 -0.562021 17.7472 2.99182 11.2692 
406 1 -0.660569 16.5258 0.863667 11.2555 
414 1 -0.520006 16.3612 4.70449 10.2712 
422 1 -0.47706 16.8149 6.32001 12.081 
427 1 -0.618863 18.0707 4.46867 13.1827 
448 1 -0.662188 16.3568 0.424146 8.68096 
481 2 0.297255 12.9671 3.35487 10.9624 
512 2 0.352329 17.6268 2.64975 8.68688 
520 2 0.38201 16.863 4.16095 7.36557 
787 2 0.328347 13.6642 1.4225 12.3758 
1258 2 0.288885 15.5843 2.18189 13.3536 
1316 1 -0.623505 14.6609 4.3481 8.36873 
1439 2 0.340932 14.8946 4.58323 12.7657 
1540 2 0.373659 15.2269 2.49625 9.97428 
1557 2 0.327036 18.4968 5.87855 9.37251 
1673 2 0.321904 14.1939 6.26479 10.2966 
1 2 0.339106 21.4481 1.15077 13.2763 
102 1 -0.679631 22.7454 0.210787 7.18823 
123 1 -0.312904 24.383 4.67327 13.1248 
126 1 -0.521528 23.712 0.438912 12.2657 
137 1 -0.630184 22.2161 2.09844 10.9431 
316 2 0.322625 19.0247 0.125817 7.93354 
322 2 0.384175 24.5523 4.73632 10.2723 
367 2 0.402406 22.5849 3.17995 14.4753 
402 1 -0.415712 20.3858 5.53412 13.2117 
426 1 -0.345904 22.2713 4.56224 11.7032 
434 1 -0.432273 22.3754 6.12336 9.56969 
463 2 0.384404 19.4944 5.0273 10.749 
791 2 0.327336 20.5612 6.3559 7.49752 
802 2 0.306795 19.7143 2.13309 9.73388 
816 2 0.309043 25.1554 3.99314 7.9036 
821 2 0.365383 20.9765 3.89866 9.422 
951 2 0.317498 19.1405 0.370696 11.1567 
1041 1 -0.690545 22.5059 4.55577 7.50018 
1254 2 0.360912 24.6238 2.803 10.8462 
1362 1 -0.650396 22.9627 2.30873 8.54993 
1416 2 0.339352 20.2184 2.87532 12.4589 
1715 2 0.360738 24.3374 0.420279 9.58785 
11 2 0.295983 4.9731 11.2759 10.1946 
49 2 0.371832 2.14218 8.73183 11.9434 
93 2 0.310595 2.36257 11.3915 11.811 
99 1 -0.343768 0.389352 6.64493 12.0534 
110 1 -0.612001 0.32663 8.55216 13.7488 
122 1 -0.375162 4.21689 7.3974 13.3526 
179 2 0.305661 1.98326 10.8802 9.56182 
209 2 0.350278 4.28048 9.97029 12.2701 
270 1 -0.696808 6.10035 11.0458 13.9976 
297 1 -0.766888 2.16054 13.3898 13.2926 
678 2 0.331343 3.50006 12.2103 8.9925 
1029 1 -0.441164 3.40614 6.70092 9.10094 
1044 1 -0.486122 1.14351 6.81392 8.11204 
1081 2 0.402802 1.75429 8.41651 10.12 
1176 1 -0.610531 3.65937 9.26597 8.48552 
1400 2 0.264161 25.2341 10.8125 11.3028 
1555 2 0.312449 5.73735 7.49314 7.73626 
1709 2 0.343751 5.11042 8.032 10.7532 
251 1 -0.679097 7.94985 8.40658 10.9816 
262 1 -0.453004 9.80573 10.053 11.2878 
271 1 -0.353399 11.7704 8.52459 11.2631 
282 1 -0.424037 9.91382 6.77694 11.0198 
283 1 -0.648869 6.43057 8.67624 13.0436 
373 2 0.335688 9.6842 11.6361 13.9494 
453 1 -0.47391 12.4455 10.0744 9.39592 
480 2 0.291951 7.40312 13.0697 12.9165 
498 2 0.372529 9.22054 9.35792 8.75384 
769 2 0.368549 9.07736 8.09362 13.3264 
931 2 0.376336 11.0897 7.76413 8.85019 
936 2 0.378255 12.2926 11.125 11.7782 
961 2 0.362453 10.7302 9.03896 13.6861 
1070 2 0.341439 11.669 8.90556 7.12589 
1128 2 0.323128 6.33664 9.45641 8.96172 
1188 1 -0.660175 9.2093 11.8758 7.16426 
1202 1 -0.402941 10.4549 11.5347 9.38993 
1392 2 0.343691 12.2144 11.9368 7.23918 
1679 2 0.352478 10.1054 12.5219 11.9325 
1686 2 0.327001 7.95597 6.8437 8.89504 
1745 2 0.327081 7.36805 10.8104 11.698 
1752 2 0.350374 7.48573 11.6932 8.8987 
14 2 0.283374 17.5206 7.34032 6.65225 
47 2 0.258636 15.3431 11.4667 12.827 
198 2 0.262231 17.4273 12.7027 11.5842 
263 1 -0.612208 13.1105 8.57914 13.4976 
361 2 0.306607 14.1269 8.36487 8.24178 
385 2 0.303122 17.1529 8.73263 13.3934 
400 2 0.232609 18.7774 9.13708 7.78718 
435 1 -0.595804 15.065 7.06641 13.8591 
691 2 0.251866 16.1999 10.26 10.0155 
1085 2 0.307977 14.6139 8.66565 11.4846 
1110 2 0.309663 18.7304 9.60641 10.8589 
1317 1 -0.651826 15.7724 12.2826 8.29156 
1359 1 -0.624743 14.0499 11.8083 10.0986 
1445 2 0.275906 16.6902 7.33043 9.37522 
1615 2 0.312381 18.5505 10.6505 13.3099 
1719 2 0.286235 18.4105 12.1202 8.77177 
145 1 -0.68088 21.0549 11.8767 13.3497 
149 1 -0.862028 19.8967 11.9138 11.0992 
217 2 0.294985 23.6622 11.2656 13.7413 
354 2 0.398884 23.0797 6.82817 13.0411 
415 1 -0.544595 19.1215 7.32252 11.9289 
423 1 -0.713488 20.3028 7.79602 9.67085 
464 2 0.343962 21.1773 9.5918 12.1784 
1012 1 -0.659082 24.9525 9.69796 8.92698 
1021 1 -0.39147 24.699 7.29371 9.81283 
1055 1 -0.726419 22.9447 11.0734 8.11725 
1354 1 -0.762797 20.684 10.3603 9.22493 
1375 2 0.322859 24.1215 8.99135 11.7931 
1456 2 0.298235 21.7306 8.84538 7.25084 
1525 2 0.319928 22.5137 11.5388 10.7794 
1582 2 0.386638 22.6378 8.84931 9.62184 
1608 2 0.316852 21.028 12.9439 8.27309 
1753 2 0.398024 21.7296 7.2882 11.7306 
12 2 0.331145 0.430472 18.2786 10.6895 
211 2 0.327369 4.67301 13.0594 12.4002 
301 1 -0.711324 2.3562 13.9331 10.7958 
528 2 0.368089 3.43235 18.9212 10.8958 
609 2 0.318698 2.65479 14.5064 8.14578 
638 2 0.35474 5.14765 20.0052 8.88536 
669 2 0.340262 3.7102 15.7849 12.4335 
710 1 -0.612918 5.60523 17.8098 12.3599 
777 2 0.337214 3.51035 16.7043 7.75493 
913 2 0.317132 0.924163 15.6363 12.5453 
1037 1 -0.645809 4.71955 16.7828 10.1882 
1045 1 -0.688906 0.960202 17.0275 8.13821 
1050 1 -0.581928 2.25917 16.4018 10.2719 
1080 2 0.299618 0.032557 17.9034 13.6303 
1193 1 -0.640442 5.49775 13.3701 7.91427 
1207 1 -0.626112 4.75635 14.2862 10.1704 
1263 2 0.379508 2.37552 19.2296 8.71841 
1408 2 0.353463 25.1303 19.9801 12.7554 
1758 2 0.325841 5.1386 18.2414 7.84551 
21 2 0.367122 9.30529 19.5849 9.66014 
161 2 0.337815 8.79733 14.9643 12.8019 
258 1 -0.614539 11.2945 14.7753 11.8895 
266 1 -0.425505 8.12642 17.7265 12.8312 
329 2 0.33265 9.46097 16.9554 8.77369 
365 2 0.363809 9.48515 18.7535 14.878 
449 1 -0.562046 12.0511 13.3035 10.0074 
494 2 0.303131 6.02319 15.7285 13.8457 
633 2 0.381288 11.7766 17.8534 13.3273 
656 2 0.331918 10.502 14.0709 8.0646 
700 2 0.315581 6.89407 15.7067 11.2326 
743 1 -0.631972 9.90975 16.7993 11.2704 
797 2 0.304246 7.21764 13.3351 10.1117 
862 1 -0.356632 11.6317 18.5834 10.8677 
897 1 -0.657633 11.805 19.0587 8.47311 
963 2 0.373761 10.4449 16.3734 13.8484 
973 2 0.314935 9.31049 14.3952 9.93802 
1164 1 -0.637804 7.91798 14.0254 7.46311 
1244 2 0.376554 13.0778 16.3118 13.4756 
1298 2 0.32726 7.25965 18.1526 10.255 
1724 2 0.337407 6.63321 15.946 8.52964 
176 2 0.325968 14.9725 16.7472 9.5433 
333 2 0.301168 18.4434 17.0181 12.5631 
386 2 0.272311 19.1936 14.5278 10.3857 
411 1 -0.538583 13.9385 18.3334 11.887 
418 1 -0.75767 16.332 18.2605 11.1475 
527 2 0.329293 13.3851 17.4724 7.42013 
547 2 0.339317 15.24 14.0112 10.3187 
616 2 0.34783 13.6442 13.632 12.6765 
697 2 0.341326 13.4653 15.9117 10.9181 
895 1 -0.639463 16.7047 18.6639 13.6676 
930 2 0.343189 13.86 15.241 7.27628 
980 2 0.374107 13.6785 13.6676 8.14454 
983 2 0.333206 11.8676 16.1824 9.36958 
1380 2 0.300294 16.358 15.3121 12.1518 
1580 2 0.287178 18.6155 18.6951 10.2092 
1780 1 -0.967806 17.4565 16.3169 9.835 
1788 1 -0.591605 16.3096 14.7252 8.0775 
46 2 0.284058 21.7661 14.0402 11.2552 
107 1 -0.602033 22.5824 18.7503 9.89328 
115 1 -0.481605 22.774 18.6568 12.429 
148 1 -0.655833 22.7608 13.7354 13.6728 
203 2 0.305191 0.149491 15.0682 9.69521 
410 1 -0.615052 21.066 17.4323 13.8255 
471 2 0.289579 25.2867 12.422 8.48921 
476 2 0.306933 23.7771 16.6086 10.8878 
530 2 0.301057 20.9354 17.0548 11.2458 
978 2 0.2937 21.1031 16.6931 8.7493 
1107 2 0.345194 23.4017 16.1082 12.951 
1130 2 0.284508 24.9175 13.416 11.7799 
1159 2 0.385916 19.9846 19.5181 12.3972 
1484 1 -0.75853 23.7663 17.0271 8.37339 
1567 2 0.290326 23.0515 14.0982 9.07212 
1767 2 0.29447 20.1103 14.6775 13.2593 
259 1 -0.341824 4.82814 20.1128 13.1398 
525 2 0.308308 1.96325 24.998 13.8529 
583 1 -0.586333 1.58509 21.215 10.2283 
591 1 -0.623985 2.47366 20.8012 12.6005 
707 1 -0.384461 5.56769 22.957 9.00296 
718 1 -0.336592 4.77982 25.0773 7.85645 
731 1 -0.563319 6.38843 23.7119 11.1849 
745 1 -0.34569 3.36411 21.8976 8.53585 
1132 2 0.387444 4.2509 21.8762 11.1058 
1219 2 0.37665 4.11049 25.0056 10.5173 
1284 2 0.321463 1.73401 25.7941 11.2258 
1387 2 0.357928 5.00318 23.9977 14.7139 
1514 1 -0.309552 2.66194 23.8349 7.21781 
1518 1 -0.650823 0.258579 24.1876 7.83762 
1609 2 0.335319 4.00155 23.7871 12.3937 
1699 2 0.336263 0.938426 22.8719 12.4637 
1743 2 0.376088 1.00472 21.6404 7.46962 
1760 2 0.355515 1.84276 23.7011 9.94407 
10 2 0.271216 12.4567 24.689 14.0897 
19 2 0.395775 11.528 19.7326 13.7867 
192 2 0.365693 6.46089 20.026 10.8904 
474 2 0.368988 10.6717 24.1158 9.07485 
671 2 0.354548 7.61243 24.4944 8.21237 
734 1 -0.253876 6.66897 21.807 12.9259 
735 1 -0.204172 8.65824 20.259 12.7207 
738 1 -0.576491 12.0927 24.9396 7.05337 
752 1 -0.574306 7.13473 21.2798 8.00164 
773 2 0.322988 8.66274 24.91 10.6802 
883 1 -0.443506 11.2334 21.4634 8.97365 
886 1 -0.372322 10.7556 20.8575 11.5123 
894 1 -0.704043 11.3122 22.2681 13.6571 
941 2 0.363593 10.2574 20.0736 6.73178 
1120 2 0.301998 11.2029 25.873 11.7356 
1418 2 0.350555 11.772 23.1503 11.2391 
1449 2 0.333595 9.78985 26.1907 8.02063 
1548 2 0.356867 9.12213 23.1147 12.6504 
1666 1 -0.542362 9.3034 22.3688 7.68664 
1749 2 0.384719 6.74928 24.6884 13.5741 
1751 2 0.37535 8.32811 22.05 10.2454 
28 2 0.277969 15.1955 19.5769 9.11683 
197 2 0.289139 17.4966 19.4369 7.78028 
219 2 0.347421 14.19 23.4876 12.7676 
502 2 0.303684 17.4823 21.5248 9.56475 
676 2 0.347848 13.3767 20.6191 10.2689 
858 1 -0.670736 18.6764 24.5945 13.1248 
859 1 -0.413204 13.1826 23.0244 8.31351 
870 1 -0.43586 13.4236 24.7405 10.0951 
871 1 -0.594329 16.7353 26.0714 12.4398 
879 1 -0.370814 15.7717 25.7036 10.0807 
890 1 -0.633725 17.1249 24.2201 8.54289 
904 1 -0.658674 15.7107 22.2629 7.85689 
933 2 0.360664 18.3566 21.7417 12.2646 
1142 2 0.371944 13.4607 20.9381 12.3713 
1259 2 0.33012 13.5027 20.6036 7.20454 
1290 2 0.391853 15.9367 21.1505 14.5472 