ITEM: TIMESTEP
81
ITEM: NUMBER OF ATOMS
1012
ITEM: BOX BOUNDS pp pp pp
0.0000000000000000e+00 2.0051186999999999e+01
0.0000000000000000e+00 2.8658390000000001e+01
0.0000000000000000e+00 2.7235227999999999e+01
ITEM: ATOMS id type q x y z 
32 2 0.299975 1.22841 5.77528 3.38897 
37 2 0.272467 5.84538 3.62056 5.43626 
54 2 0.33683 2.5991 0.829674 1.11253 
68 1 -0.927273 5.56675 5.43353 7.26088 
143 2 0.272831 3.97816 5.5282 4.68796 
234 2 0.300804 0.674712 3.00791 2.31134 
240 2 0.331684 3.49201 5.13203 1.38688 
255 2 0.276501 1.09071 3.48035 4.84566 
317 2 0.319393 4.86601 0.938023 6.06693 
423 2 0.327338 5.91143 1.21521 4.06441 
442 2 0.302047 3.57693 3.1666 2.34724 
678 2 0.307486 5.63025 2.66195 0.693003 
708 2 0.317147 0.731029 0.501269 4.58347 
761 1 -0.670394 5.15534 0.339746 1.88851 
765 1 -0.618807 3.17917 0.725337 3.50021 
813 1 -0.882773 3.51005 2.76277 4.78763 
814 1 -0.850526 2.3979 1.55404 6.58544 
824 1 -0.917208 0.977823 5.51564 0.910559 
836 1 -0.893253 2.50487 7.35684 1.74809 
876 2 0.315856 5.57837 5.30996 2.09416 
973 2 0.319722 20.0096 0.759669 0.663919 
40 1 -0.652017 12.7031 3.45924 6.10267 
99 2 0.313079 10.6565 3.05676 1.09185 
114 2 0.249495 7.12936 5.98264 3.73719 
204 2 0.294273 12.6502 6.651 3.70467 
209 2 0.261471 9.59867 4.89816 2.71969 
395 2 0.346653 7.80125 0.41767 1.4545 
432 2 0.340671 7.88469 1.00479 5.52031 
539 2 0.307717 10.904 5.20701 5.44005 
590 2 0.277245 12.3948 3.31046 3.37982 
598 1 -0.741054 7.88745 5.38635 0.681463 
650 2 0.346289 11.6041 0.772134 3.64306 
731 2 0.303492 11.9015 5.6835 1.29313 
763 1 -0.393527 9.1113 28.3836 3.57482 
784 1 -0.864036 9.46306 2.23767 3.53862 
786 2 0.3191 12.6806 0.731383 6.69944 
789 1 -0.48586 10.4774 2.33143 5.80953 
807 2 0.292193 8.32183 3.8041 5.30542 
830 1 -0.902642 6.87082 7.48477 1.62474 
841 2 0.275498 7.26032 2.98359 2.50056 
902 2 0.358812 9.99788 0.81937 1.25494 
82 2 0.326692 18.6068 5.12461 5.04744 
119 1 -0.632388 17.5937 6.9536 3.2758 
139 2 0.302432 18.9633 5.4126 26.8418 
169 2 0.366979 15.5267 6.82217 4.96962 
188 2 0.305335 14.1012 1.59489 1.40752 
242 2 0.331654 13.8266 0.653855 4.16143 
247 2 0.313087 14.5801 4.81437 5.1243 
248 2 0.316505 16.8737 6.31227 0.812977 
356 2 0.352683 16.6083 4.53495 3.45232 
504 2 0.303446 16.425 3.44805 0.890074 
767 2 0.279002 18.8647 1.22274 4.58864 
808 1 -0.67495 14.9629 2.25427 5.956 
810 1 -0.669661 15.9082 2.00915 3.56074 
811 1 -0.677918 17.3413 0.935787 0.730918 
812 1 -0.682794 18.1708 2.55949 2.54445 
834 1 -0.659252 18.8999 5.02157 2.22032 
917 2 0.330264 17.5005 2.51981 5.56566 
957 2 0.287509 14.4094 4.91737 1.92717 
15 2 0.321655 3.0928 12.8173 1.86831 
27 2 0.297156 4.65108 8.02395 2.88967 
58 2 0.258277 5.25174 10.7465 2.82513 
161 2 0.310623 19.6795 10.8797 3.67143 
175 2 0.319134 4.56314 12.1073 0.704589 
239 2 0.339265 6.44666 13.373 6.54912 
391 2 0.347193 5.61628 14.197 1.96204 
592 2 0.300115 3.64053 12.5616 4.64588 
694 2 0.334044 2.01387 14.3135 1.29765 
735 2 0.318102 1.48927 10.6513 6.4185 
742 2 0.295551 3.79186 12.759 7.46843 
809 2 0.259737 2.65296 7.93637 5.0099 
819 1 -0.90876 5.11884 7.85541 6.66934 
823 2 0.300874 2.84703 9.81108 0.435814 
829 1 -0.665347 4.67957 7.36933 0.357532 
847 2 0.262791 4.41634 10.2319 5.8618 
879 1 -0.73062 1.20657 13.1582 3.6657 
905 1 -0.705052 0.687423 11.8945 1.43449 
967 2 0.258281 2.18576 10.1659 3.12486 
17 2 0.248022 6.78596 8.5183 4.58873 
61 2 0.350808 9.10337 12.9755 2.63511 
102 2 0.261459 9.84395 7.81317 2.55828 
138 1 -0.612835 8.84508 12.7753 5.26146 
202 2 0.294774 8.99167 10.1724 4.50367 
254 2 0.321325 9.24143 7.58978 0.486549 
318 2 0.306841 11.1144 11.4266 5.05595 
369 2 0.321484 13.1843 9.78465 6.34632 
402 2 0.263564 9.73161 7.32371 4.98128 
430 2 0.275108 7.70485 9.97577 1.86562 
465 2 0.311218 10.7028 10.0191 0.0621972 
517 2 0.290738 6.57442 11.2032 5.94777 
610 2 0.326338 12.7642 8.60858 1.71644 
624 2 0.261218 10.4925 10.6375 2.15735 
785 2 0.299132 11.8352 12.9529 1.97082 
825 2 0.349684 10.9949 12.7192 7.06619 
853 1 -0.898739 10.6777 9.12871 6.4505 
854 1 -0.974507 11.6489 9.12212 4.151 
890 1 -0.72022 7.31419 12.4194 0.894917 
891 1 -0.717168 6.85792 12.6302 3.57956 
11 2 0.283287 15.7009 8.97562 0.612435 
47 2 0.357546 16.8552 9.36083 3.77295 
120 1 -0.61412 15.7212 9.14737 6.16458 
124 1 -0.679276 17.7976 7.6609 5.77336 
182 1 -0.658956 0.059276 12.5774 5.95942 
183 1 -0.625945 17.6338 13.056 6.16713 
187 1 -0.657667 16.7181 14.2393 4.17485 
466 2 0.336917 14.2093 13.631 3.11684 
505 2 0.287867 14.0868 13.7881 5.38522 
536 2 0.372728 18.4933 12.3754 3.54984 
560 2 0.349834 15.9737 11.523 4.56986 
589 2 0.274502 19.8565 8.1951 4.21515 
677 2 0.273805 13.0959 11.2849 3.33432 
758 2 0.340147 18.2594 10.3632 5.96993 
815 2 0.29954 17.9139 9.5013 1.85379 
855 1 -0.688015 14.1918 9.07029 4.10327 
880 1 -0.94757 14.1223 6.9558 0.223651 
881 1 -0.647227 15.1353 7.35177 2.55243 
889 2 0.287803 19.9059 7.90721 1.27423 
938 2 0.303932 14.9566 10.6402 1.91123 
939 1 -0.705247 14.6557 13.5149 0.391629 
941 1 -0.586412 16.3615 12.7738 2.0797 
942 1 -0.584651 18.286 11.7963 0.753159 
4 2 0.322088 5.94321 17.1278 2.23381 
45 2 0.302395 2.40248 17.2684 5.48802 
66 2 0.331405 4.84572 15.3899 0.532016 
73 2 0.279993 6.70669 19.2683 3.51353 
79 2 0.321809 1.38418 15.7875 0.0875686 
81 1 -0.693323 3.0096 15.0155 3.65756 
321 2 0.334095 4.69053 16.9877 3.8728 
495 2 0.347779 4.24809 17.5258 0.149852 
512 2 0.348877 0.853549 19.9533 6.26166 
542 2 0.289929 3.6467 19.7924 5.39209 
565 2 0.30225 6.53716 21.3537 6.02475 
661 2 0.323895 2.05544 19.1747 0.175008 
755 2 0.301797 -0.237345 17.9231 4.00355 
779 2 0.34059 1.74296 14.4509 5.95423 
875 2 0.32145 0.603972 15.8097 3.25442 
884 2 0.314836 1.59682 19.0961 3.49629 
892 1 -0.685976 5.40029 14.5158 4.50924 
897 1 -0.695079 2.66384 17.0203 2.08507 
909 1 -0.927376 0.317858 17.7314 1.48842 
919 2 0.317123 0.2054 17.0129 6.35946 
956 1 -0.86612 4.04518 19.0738 2.55239 
960 1 -0.637785 5.73143 19.4894 0.749595 
983 2 0.297973 5.69154 18.3418 6.04227 
22 2 0.292363 12.1579 20.0428 3.03281 
122 2 0.329319 12.8504 17.9033 0.817813 
160 1 -0.479029 9.23985 15.0525 6.44296 
217 2 0.351266 7.82741 14.9042 1.07833 
336 2 0.331638 8.94869 19.5837 7.21012 
420 2 0.32676 8.39564 17.6938 5.55314 
425 2 0.342447 13.2383 17.8257 5.50419 
447 2 0.342412 11.3094 17.0379 2.47539 
459 2 0.341862 9.94268 15.1217 3.48794 
462 2 0.304097 9.54629 18.314 3.48862 
651 2 0.318775 11.2389 13.9091 4.5652 
665 2 0.302801 8.17841 16.8376 2.15439 
726 1 -0.713062 12.2693 20.5951 0.314095 
792 2 0.323697 8.15389 19.5875 0.655365 
874 2 0.295901 10.3526 19.34 1.41785 
893 1 -0.711984 6.70858 15.9013 6.29509 
904 2 0.362029 7.81772 15.1223 4.07588 
921 1 -0.671789 10.5374 15.0499 0.812135 
922 1 -0.698675 12.9858 15.2633 1.38906 
923 1 -0.722524 10.9283 16.7142 5.2654 
924 1 -0.66019 12.9339 15.7385 3.91009 
987 1 -0.922791 8.74906 20.3527 4.771 
991 1 -0.696166 10.914 19.3131 5.4557 
42 2 0.337231 17.8344 19.0492 2.97156 
243 2 0.301727 18.1668 16.6048 1.16807 
271 2 0.367518 17.2491 14.144 0.183493 
341 2 0.33402 19.0624 14.0907 2.08658 
377 2 0.318168 13.7439 20.0902 6.32255 
578 2 0.320298 17.3583 16.4063 6.52126 
604 2 0.337369 17.2264 19.4599 1.03491 
676 2 0.313561 17.6086 16.6428 3.70519 
730 2 0.333185 13.5077 18.8646 3.66866 
794 2 0.351342 16.7247 21.0374 5.30729 
799 2 0.329251 19.22 14.8033 4.95879 
850 2 0.306802 19.9384 20.2866 1.7149 
873 2 0.341075 14.8902 17.6024 2.49365 
927 1 -0.700118 15.1928 16.1425 4.83081 
931 2 0.352942 15.6296 15.468 2.1081 
947 1 -0.700284 16.0147 18.5617 4.79345 
950 1 -0.709905 18.2912 18.934 5.76636 
989 1 -0.667397 14.638 19.869 0.772074 
1006 1 -0.648301 15.544 20.4124 3.05436 
1011 1 -0.615108 19.3454 20.8229 4.37736 
6 1 -0.653921 0.737018 26.5691 5.66101 
46 2 0.328108 4.08077 26.9816 3.35039 
97 2 0.284232 2.43442 24.9609 1.57091 
113 2 0.387503 0.175299 24.1709 6.32161 
129 2 0.336306 1.23005 27.2629 3.01177 
212 2 0.283837 4.19065 23.0415 0.822661 
259 2 0.289743 1.21327 22.4164 0.0922277 
290 2 0.327983 5.1354 26.4431 1.17807 
301 2 0.305073 3.18407 25.4387 5.4432 
452 2 0.290434 5.47331 21.2875 2.95412 
483 2 0.27253 2.59485 21.4196 2.6578 
553 2 0.309852 5.61975 27.236 5.74285 
692 2 0.286635 6.4033 24.9611 4.40346 
760 1 -0.627483 2.82288 28.0279 5.58022 
916 2 0.246168 4.1331 23.9586 3.52227 
958 1 -0.67831 6.40211 21.8964 0.245372 
964 1 -0.972931 6.54678 23.5178 2.20527 
965 1 -0.675438 1.2636 22.3431 4.95494 
969 1 -0.683764 1.18556 24.6844 3.95381 
970 2 0.330046 2.25347 27.3652 0.475172 
976 2 0.292028 3.76652 22.2387 5.91682 
60 2 0.280037 8.44911 21.4285 2.38039 
103 2 0.306327 11.3726 24.2728 4.48239 
109 2 0.281275 10.9936 22.5786 1.7364 
141 2 0.368921 12.4103 28.0701 1.58789 
258 2 0.291544 8.17113 22.9052 4.1473 
278 2 0.323481 8.98391 24.7811 6.30575 
399 2 0.344797 11.3395 26.7531 4.10527 
444 2 0.349953 8.27892 26.6752 5.37626 
562 2 0.315941 11.0575 21.7078 4.60514 
591 2 0.318252 13.7355 22.2113 2.33039 
714 2 0.317643 9.31243 24.6845 3.14869 
762 1 -0.584582 6.76048 27.4849 3.16357 
766 1 -0.638381 7.60192 25.7768 1.60023 
787 1 -0.633581 10.2022 28.4652 5.88105 
790 1 -0.627014 11.9476 25.1726 1.79991 
806 2 0.3349 13.5628 27.095 4.96427 
980 2 0.31303 8.44642 23.5519 0.467094 
986 1 -0.401459 9.98726 26.777 1.71395 
992 1 -0.635109 9.19046 22.1045 6.48705 
21 2 0.358855 20.0258 22.7236 2.58643 
43 2 0.364695 15.9315 23.4156 4.01906 
67 2 0.337266 15.0554 24.8323 1.17953 
86 2 0.319279 13.7234 22.1323 4.91113 
98 2 0.328143 18.4269 27.6062 6.20104 
194 2 0.344852 15.5227 28.5471 6.97468 
226 1 -0.761767 13.4512 24.6684 6.19357 
236 1 -0.644004 15.5887 25.9937 6.14577 
238 2 0.335612 17.1208 26.5878 0.922999 
313 2 0.348301 19.0981 22.1363 6.66458 
339 2 0.321965 15.9531 23.3307 6.39838 
368 2 0.369771 18.7225 23.5062 4.54544 
417 2 0.373898 13.7956 26.877 2.16534 
563 2 0.345507 13.1734 23.5605 0.121883 
574 2 0.344544 19.3675 27.3572 0.672316 
690 2 0.347313 16.3345 28.3852 4.91407 
693 2 0.359456 18.7865 26.2638 3.73075 
778 2 0.33108 18.3196 28.4877 2.89581 
797 1 -0.650902 15.7634 28.4359 2.35287 
828 2 0.35968 17.9673 25.4507 5.69572 
936 2 0.35022 16.2118 22.3457 0.717333 
990 1 -0.637356 13.7561 24.7627 3.65056 
995 1 -0.673176 19.8863 25.0415 1.8007 
1009 1 -0.492307 15.9941 26.0414 3.55309 
1010 1 -0.607854 17.6245 21.7705 2.80586 
1012 1 -0.609746 17.5452 24.3062 2.2999 
18 1 -0.888214 1.56997 3.40092 11.075 
176 2 0.308599 19.865 1.78196 9.65884 
215 2 0.293773 2.49959 2.13259 9.11319 
270 1 -0.893694 1.91672 1.89321 13.0514 
286 2 0.313778 4.94914 4.37128 12.2968 
309 2 0.294371 1.53824 7.58785 9.27386 
454 2 0.350823 4.73696 6.92592 12.1672 
477 2 0.305791 6.6058 1.26931 10.409 
497 2 0.257646 0.862293 5.95663 6.38236 
556 2 0.312118 0.91973 4.72362 8.68233 
595 2 0.291013 5.25951 3.71141 9.16994 
626 2 0.289207 4.4749 0.963843 8.24741 
675 2 0.315187 5.74167 6.87403 9.40795 
721 2 0.268844 3.35694 5.15496 10.2626 
740 2 0.296872 0.152227 2.54272 6.8472 
775 2 0.285989 3.34593 3.89058 7.10952 
827 2 0.314903 4.02439 2.07005 11.3888 
988 2 0.299653 3.34619 6.41181 7.84541 
1008 2 0.303821 1.38945 5.97723 11.7311 
2 1 -0.88201 7.04251 4.07252 11.0001 
24 1 -0.694502 7.60777 5.09832 8.74303 
30 1 -0.659531 11.9837 5.16788 7.8596 
44 1 -0.606285 12.752 0.79844 11.8585 
48 2 0.322211 8.32462 28.6293 12.6616 
89 1 -0.673844 11.936 4.90634 12.2296 
207 2 0.307726 7.12299 2.35855 13.1354 
291 2 0.351953 11.7135 2.67936 8.45692 
323 1 -0.677418 7.14102 5.30607 13.2687 
331 2 0.303528 7.26135 2.69908 7.75343 
503 2 0.349196 9.51937 1.26543 8.01841 
534 2 0.34021 7.78123 6.59697 10.9354 
550 2 0.340472 10.0479 4.82767 9.97041 
646 2 0.318008 9.37142 4.30052 12.3743 
698 2 0.308312 9.74142 6.89712 7.9238 
718 2 0.309613 9.04571 2.32069 10.29 
770 2 0.343095 10.3101 1.67596 12.8019 
798 1 -0.608181 9.70923 4.07882 7.57381 
818 2 0.313114 11.4789 0.00723073 9.43213 
912 2 0.323859 11.0757 6.68246 10.5391 
915 2 0.345564 11.9692 2.97831 10.5933 
13 2 0.331539 16.0526 6.98716 7.58082 
34 2 0.316031 14.2788 6.60516 8.05342 
51 1 -0.640161 15.2256 0.0442314 11.6476 
52 1 -0.724441 16.4887 0.0292399 9.41141 
53 1 -0.636164 16.4097 2.21248 8.06539 
90 1 -0.653509 13.2462 5.35915 10.1067 
105 1 -0.649823 18.517 3.64805 8.23171 
107 1 -0.679225 19.2872 4.24691 10.5576 
117 1 -0.672371 19.3516 6.7035 10.1054 
118 1 -0.664855 18.4737 6.09933 7.82068 
132 2 0.336028 16.5178 4.61455 6.72423 
142 2 0.338637 14.5492 5.16584 12.3669 
203 2 0.302737 19.5897 2.5051 12.5415 
232 2 0.33461 16.5561 4.77529 9.60123 
262 2 0.336458 15.8939 6.5497 10.6972 
288 2 0.330442 14.1491 1.20956 9.43196 
440 2 0.320299 17.5991 3.31453 14.3585 
460 2 0.287624 18.1891 0.308521 11.8326 
492 2 0.360484 14.5946 2.70373 11.6677 
647 2 0.333591 17.9183 5.70573 12.1222 
821 2 0.338801 17.1226 2.3402 10.5434 
838 2 0.300505 19.6787 5.19846 13.6621 
996 2 0.304168 16.7181 3.6502 12.4776 
999 2 0.352685 14.2766 3.71064 8.29336 
10 2 0.323568 4.07326 13.9998 10.5451 
69 1 -0.749092 2.62806 10.8031 8.95906 
70 1 -0.713956 1.29018 12.894 8.23705 
71 1 -0.692446 3.89478 10.8627 11.1896 
72 1 -0.58403 3.18375 9.10243 12.9573 
130 2 0.30689 1.13802 10.2786 11.6437 
131 1 -0.686988 5.96394 12.4091 11.4081 
265 2 0.314688 4.8938 9.34621 8.79277 
276 2 0.379405 5.72526 10.1959 13.0412 
297 2 0.303572 5.12679 11.7241 8.93901 
438 2 0.323781 5.66765 14.43 9.26996 
568 2 0.337671 2.80426 14.6519 12.366 
576 2 0.320659 4.7509 12.8602 13.6409 
640 2 0.339624 0.52753 7.94446 12.3213 
741 2 0.287118 0.0426252 12.6904 13.0924 
831 1 -0.96487 2.85468 8.79421 7.39718 
867 2 0.302457 19.8769 8.38612 7.28238 
914 2 0.336279 2.39697 12.8202 10.5484 
951 2 0.31638 3.232 8.41915 10.4201 
91 1 -0.701043 9.72918 11.9184 9.3285 
92 1 -0.666279 9.06761 10.9395 7.05731 
93 1 -0.644756 12.6436 7.26289 12.7843 
104 1 -0.693946 8.26008 11.3568 11.3839 
156 1 -0.66486 10.2827 14.3671 8.81329 
227 2 0.31061 12.8184 7.40456 6.10738 
324 1 -0.537279 7.12267 7.79625 13.2265 
342 2 0.346565 7.36608 11.7286 13.9265 
345 1 -0.458786 8.83743 9.7324 13.3411 
424 2 0.337725 8.06793 13.9445 10.6415 
520 2 0.298776 11.7071 10.4227 8.43341 
575 2 0.332761 9.8966 7.5215 12.2338 
593 2 0.318665 10.5984 11.5134 12.2904 
623 2 0.342194 6.40382 9.35505 11.1223 
780 2 0.318821 12.0571 12.6119 10.1822 
837 2 0.316268 7.1497 11.3537 9.00291 
856 2 0.298096 7.72965 6.22342 6.42509 
866 2 0.305009 11.8933 7.79766 8.55926 
910 2 0.305175 11.7831 9.51209 11.0781 
920 2 0.303759 9.19543 9.18775 9.9387 
953 2 0.290381 7.49887 8.75596 7.64777 
974 2 0.368659 8.0423 13.2581 7.86096 
59 2 0.33122 18.8567 11.6961 8.19217 
80 2 0.267146 13.6063 11.8663 6.15612 
88 1 -0.682908 13.6647 7.81167 10.6321 
127 2 0.308606 13.8045 10.7819 11.3138 
173 1 -0.680581 16.0006 11.4395 7.24218 
178 1 -0.6965 15.8483 11.4889 9.78548 
256 2 0.329956 16.8572 13.6742 8.86734 
351 2 0.325703 15.1173 7.89758 13.1628 
360 1 -0.724315 15.7968 9.2365 11.0297 
364 1 -0.67618 18.0067 8.16271 11.7824 
412 2 0.3404 14.4688 9.46988 8.66432 
426 1 -0.700208 14.5313 13.4722 10.7387 
461 2 0.315798 13.9054 12.7371 8.35369 
522 2 0.346452 17.2956 9.64732 8.52476 
544 2 0.301822 18.109 10.7163 11.2676 
603 2 0.273934 13.1832 12.8192 13.134 
639 2 0.295983 0.127673 9.71977 9.45098 
687 2 0.305028 16.0626 12.658 12.7825 
700 2 0.322806 17.8783 13.413 10.7045 
900 2 0.35655 17.3734 7.94765 9.26049 
955 2 0.30619 19.9447 12.7511 10.4595 
33 2 0.342132 3.68219 21.2699 11.1353 
77 2 0.353841 1.03199 19.7106 8.16904 
111 2 0.342167 3.42465 16.5975 10.0399 
134 1 -0.731556 5.85939 14.8036 12.3663 
135 1 -0.72053 3.22566 18.2523 7.863 
136 1 -0.698145 6.29979 16.7156 10.6945 
140 1 -0.735375 0.365618 15.2354 12.5324 
165 2 0.341396 4.13767 16.726 12.2382 
184 1 -0.716405 1.00361 14.9895 9.95991 
185 1 -0.688614 0.99446 17.2593 8.79902 
196 1 -0.641699 6.32006 21.1665 11.4894 
197 1 -0.649423 3.46237 20.8041 8.27162 
201 1 -0.723337 2.42046 20.8392 13.6462 
320 2 0.325713 2.71792 19.0755 10.2124 
352 2 0.334157 1.27685 17.2617 11.4453 
388 2 0.362736 5.17082 19.0915 10.1981 
453 2 0.320916 19.4897 18.8698 10.5078 
549 2 0.331182 4.07531 15.5678 6.47654 
567 2 0.308131 0.791028 20.4069 11.652 
605 2 0.343819 5.20087 19.471 13.1326 
627 2 0.335624 2.72105 15.3418 8.1733 
683 2 0.330455 3.24153 18.6294 12.8134 
783 2 0.336951 5.6721 19.6826 7.96004 
894 1 -0.703487 5.34448 16.8608 8.29856 
19 2 0.306131 8.40788 16.3175 12.9068 
78 2 0.315306 8.95038 16.6797 11.0413 
112 2 0.338077 7.74578 20.358 13.8234 
137 1 -0.699731 7.44588 18.861 11.4986 
155 1 -0.736267 12.7644 14.9733 9.49656 
157 1 -0.666196 13.0002 17.2214 10.6811 
158 1 -0.624378 11.2881 16.9553 12.6163 
210 1 -0.651146 9.63178 18.7653 12.7387 
230 1 -0.679101 11.2828 20.9657 7.3508 
283 2 0.321919 12.2421 19.5271 11.8351 
294 2 0.308309 10.6515 14.2812 11.5182 
482 2 0.313182 7.69565 18.0939 8.7823 
541 2 0.339055 7.80419 20.9922 9.22262 
641 2 0.283594 9.96415 19.3335 10.0256 
642 2 0.326128 12.228 15.0664 6.92598 
648 2 0.309828 9.56683 21.2489 11.901 
689 2 0.291813 12.2121 18.6467 8.2763 
764 2 0.314236 10.4255 17.1622 7.76198 
826 2 0.347514 7.92442 15.8332 8.60001 
898 2 0.317071 6.37863 17.2511 13.2844 
1005 2 0.328197 10.6918 16.5804 10.0397 
125 2 0.314086 15.9813 18.5005 7.44224 
164 1 -0.688522 16.9862 19.0345 10.0038 
166 2 0.321162 14.4636 19.2928 9.598 
181 1 -0.621726 15.4211 17.5229 11.4131 
186 1 -0.555785 16.2221 15.135 11.662 
223 1 -0.706666 16.8391 21.5021 10.491 
244 1 -0.717966 18.719 18.2435 8.19278 
376 2 0.3333 19.3376 14.7042 7.91299 
405 2 0.35886 15.102 15.8981 9.45121 
437 1 -0.692626 18.0689 14.4031 13.2732 
525 2 0.298509 18.0999 20.5548 12.5525 
538 2 0.286171 14.0458 16.7352 7.61923 
559 2 0.331927 17.8366 20.6152 7.91798 
607 2 0.326167 14.7329 20.6992 11.8607 
695 2 0.347491 19.1907 21.3611 9.09156 
720 2 0.3116 17.828 17.4248 12.4475 
743 2 0.366668 13.5351 15.3436 12.2054 
860 2 0.339946 17.1039 16.5647 9.36713 
954 2 0.307335 15.6953 14.5374 6.97249 
971 2 0.323653 15.8217 21.3926 8.0498 
998 2 0.350182 18.7365 15.9268 10.6556 
1 1 -0.897226 4.44236 28.2269 10.4074 
7 1 -0.632269 6.66406 26.9828 10.0831 
50 1 -0.66841 3.4373 28.5436 12.749 
87 2 0.282335 1.11497 26.2117 13.0621 
115 2 0.330003 6.06622 24.5698 9.83781 
198 1 -0.672205 5.5042 21.9928 9.23808 
199 1 -0.644027 4.83782 21.9583 13.4396 
245 1 -0.984053 0.186034 22.1071 13.3687 
250 1 -0.714693 0.314208 23.871 9.14151 
353 2 0.336951 1.32755 21.661 9.97019 
468 2 0.288782 1.76577 23.5729 11.9335 
470 2 0.302121 3.32198 23.6063 9.30375 
489 2 0.334518 6.04965 28.134 12.3862 
491 2 0.302105 1.64476 0.207537 10.9263 
527 2 0.316617 1.31814 28.2057 7.83234 
588 2 0.306256 5.16972 23.6211 11.6248 
713 2 0.295715 4.28206 26.7689 8.29596 
769 2 0.335433 3.84873 24.2685 14.2128 
796 2 0.285322 5.04927 24.1747 7.0053 
862 2 0.305314 6.38502 25.5082 13.0183 
882 2 0.323383 2.07096 25.06 7.45486 
952 2 0.268119 1.68239 26.1429 10.0143 
963 1 -0.621965 1.64093 22.3592 7.48179 
1000 2 0.303207 3.91736 26.0955 11.7573 
5 1 -0.697907 7.01792 25.864 7.82913 
16 2 0.328154 10.4274 25.8555 9.90018 
25 1 -0.701432 10.7725 27.7353 11.7191 
28 1 -0.670963 8.84307 28.268 10.0696 
29 1 -0.78157 10.5864 23.6185 11.4952 
31 1 -0.654531 9.20677 27.1512 7.88602 
39 1 -0.724798 10.7606 25.5376 13.0618 
85 2 0.336163 11.2585 23.6578 7.17318 
190 2 0.333742 6.97149 28.5097 7.93692 
211 1 -0.676277 7.25156 23.2647 7.83947 
224 1 -0.654355 12.8443 22.6411 11.8856 
229 1 -0.703004 13.4539 22.4336 7.53105 
300 2 0.34886 8.64705 25.9385 11.4362 
400 2 0.326614 9.88027 22.4117 9.15393 
583 2 0.330085 12.2209 21.277 9.75649 
613 2 0.269663 13.8736 26.9897 8.60701 
616 2 0.344266 9.09534 24.6209 8.98807 
645 2 0.327705 12.3508 25.3498 10.942 
664 2 0.316998 7.89947 23.29 10.8928 
863 2 0.293973 8.52307 23.6514 13.4208 
908 2 0.294141 11.5874 26.3575 7.08914 
57 1 -0.753248 17.087 26.5045 8.19741 
148 2 0.31354 14.8756 24.4916 11.5292 
174 2 0.318322 18.4212 0.526976 7.6187 
214 2 0.324732 12.3038 23.9839 9.41924 
222 1 -0.725885 14.513 22.5765 9.92295 
246 1 -0.747159 19.6304 26.0565 8.00376 
266 2 0.325667 14.8738 24.7262 8.42619 
274 2 0.292576 16.6908 23.4471 12.4097 
296 2 0.294999 16.1293 26.3696 10.6381 
371 2 0.274062 19.0071 25.3862 11.0453 
389 2 0.331379 18.0259 23.9757 7.69051 
496 1 -0.765676 19.0764 22.7495 11.1358 
511 2 0.32471 17.2606 23.8097 9.43224 
543 2 0.306524 17.0919 26.8316 12.9217 
561 2 0.288257 18.9786 27.7422 9.90195 
861 2 0.324461 13.4595 26.9408 11.4481 
153 2 0.229391 5.68823 6.01357 18.0192 
171 2 0.314967 19.3747 6.22854 18.2282 
189 2 0.283493 3.30427 1.71768 18.7047 
252 2 0.284953 0.647941 2.79615 15.2846 
279 2 0.323776 0.141847 1.76148 18.2212 
325 1 -0.901594 4.98823 5.56123 14.5684 
357 1 -0.944558 0.782031 4.23811 17.4098 
370 2 0.34739 5.71911 28.324 14.5867 
418 2 0.289248 4.35732 2.08492 14.1415 
429 2 0.287208 2.55728 4.46803 13.4746 
443 2 0.252726 5.74754 3.06197 19.187 
581 1 -0.709688 1.15337 3.54175 19.8069 
688 2 0.323475 2.51858 0.494859 15.3261 
800 2 0.242956 3.25172 4.20619 16.386 
816 2 0.310791 5.35191 0.773117 16.713 
840 2 0.281713 6.19194 3.53796 15.6211 
895 2 0.290633 3.31747 5.04001 19.5536 
933 2 0.277392 1.60725 6.88918 17.6071 
14 2 0.325198 10.4934 28.1976 14.543 
193 2 0.326465 8.87063 3.67213 15.1889 
260 1 -0.613345 7.69888 2.13234 17.3523 
267 1 -0.577284 8.35458 0.99257 15.2815 
280 1 -0.526573 12.6013 2.73037 13.5668 
281 1 -0.577145 10.0852 2.68586 17.6735 
282 1 -0.679372 10.7737 1.91297 15.4171 
292 2 0.32005 13.5181 5.43893 17.2441 
293 1 -0.675499 10.7689 4.4379 19.3982 
310 2 0.312304 12.5674 2.63303 18.7618 
337 2 0.366469 9.48988 0.266485 17.4517 
354 2 0.317819 9.60214 7.89084 16.1924 
586 1 -0.687366 10.229 6.89418 18.906 
602 2 0.311162 8.13998 5.93073 20.3646 
673 2 0.320485 10.9628 5.23691 16.9698 
791 2 0.317704 11.3409 4.65981 14.7355 
845 2 0.314518 9.46652 6.62031 13.964 
903 2 0.289513 7.21126 6.41226 15.7149 
918 2 0.299869 8.42602 4.76953 18.0262 
977 2 0.328486 8.29831 2.0408 19.9066 
1003 2 0.278182 11.9942 28.6587 17.426 
144 2 0.338989 14.2198 5.21523 14.493 
298 1 -0.662012 16.4709 0.863888 13.6763 
306 1 -0.636524 15.0383 2.77898 14.5098 
363 1 -0.757633 16.1229 4.09008 16.4676 
372 1 -0.693514 18.5833 4.77302 16.219 
373 1 -0.579864 15.763 6.57178 16.3191 
381 2 0.33172 19.1268 5.02066 20.7082 
433 2 0.348683 17.0725 6.5291 13.9578 
441 2 0.317928 16.5473 5.52987 18.6326 
500 2 0.291886 15.3491 2.92413 18.6242 
552 1 -0.735283 15.2827 0.448425 20.0802 
582 2 0.318679 16.2319 1.36098 16.2612 
638 2 0.299671 18.6114 3.74904 19.0563 
711 2 0.328524 13.1007 0.799172 15.3692 
801 2 0.309305 13.1368 2.94069 16.4043 
802 2 0.284163 18.1983 2.42918 17.1714 
832 2 0.316676 17.5016 0.585556 18.7459 
848 2 0.316811 14.8637 0.238034 17.3936 
872 2 0.302652 18.9466 0.464043 15.1403 
981 2 0.315421 13.4493 5.31288 19.6075 
985 2 0.334418 0.43379 6.50502 15.1837 
20 2 0.3549 3.50044 12.755 20.3318 
168 2 0.304366 1.41018 9.46129 19.1852 
264 2 0.318937 1.48316 13.8846 18.0602 
316 2 0.319502 4.92733 8.75828 19.4231 
319 2 0.334025 19.7076 9.17355 16.5626 
322 1 -0.848138 2.1224 9.50453 16.7989 
326 1 -0.578107 5.00921 8.04686 14.456 
361 1 -0.677357 1.20593 9.72964 14.4431 
365 2 0.304532 2.67791 11.8459 13.3671 
378 1 -0.705378 0.966189 12.1322 19.9325 
386 1 -0.715766 5.28109 11.6999 18.8042 
387 1 -0.753298 2.76335 11.5801 18.1038 
397 2 0.338457 3.85007 10.3588 15.1517 
490 2 0.299887 1.0959 11.8018 16.0046 
611 2 0.285158 4.11816 12.9157 16.3852 
628 2 0.27502 3.81598 7.35918 16.7773 
858 2 0.301607 3.047 7.30591 20.3489 
935 2 0.366812 3.19341 10.5807 20.5023 
979 2 0.341002 2.42317 7.22993 14.5153 
76 2 0.324038 9.37071 13.0993 20.0008 
128 2 0.359837 10.6463 12.0702 17.6387 
172 2 0.306514 8.48355 13.4762 22.7155 
231 2 0.311395 11.0132 14.5493 13.5648 
289 2 0.359361 10.7811 12.3282 14.6059 
346 1 -0.57025 9.15249 10.7196 15.7109 
347 1 -0.47269 11.5782 10.1012 15.967 
348 1 -0.613835 11.2906 9.28722 13.6115 
350 1 -0.605006 12.0317 8.06313 17.5296 
392 1 -0.790696 6.92316 13.6272 18.0235 
407 1 -0.716835 8.81207 13.2138 16.2155 
408 1 -0.748314 12.9635 12.3071 16.2734 
409 1 -0.754495 11.2088 14.2983 16.3225 
422 2 0.345655 12.3211 8.26465 20.1092 
493 2 0.358822 12.92 10.4921 18.4086 
533 2 0.327851 7.81395 11.164 18.2351 
577 2 0.316831 12.5509 13.5176 18.609 
585 2 0.312174 6.47236 11.8512 16.0621 
644 2 0.339592 11.8847 7.23788 15.1189 
736 2 0.312692 8.15479 13.4085 13.2542 
774 2 0.33873 9.90576 9.46647 18.1787 
776 2 0.325775 7.10055 9.18015 15.6331 
803 2 0.306936 4.78518 9.71287 17.2765 
820 2 0.293038 7.62361 8.28067 18.6608 
859 2 0.313357 11.8813 11.5048 20.6524 
978 2 0.322827 10.4233 10.3492 19.8717 
146 2 0.334969 19.5047 14.5384 17.0218 
340 2 0.36358 14.2082 9.89321 16.7183 
349 1 -0.608362 14.4232 7.69969 18.188 
374 1 -0.607364 18.1481 7.21535 16.194 
375 1 -0.669981 18.9556 8.58625 14.1447 
379 1 -0.661311 15.3429 9.82692 19.1805 
411 1 -0.751038 15.0057 12.1167 17.996 
414 2 0.307367 15.5564 12.4892 15.4137 
434 1 -0.658565 17.3673 13.1166 17.5149 
435 1 -0.674275 19.0755 13.7623 19.4319 
513 2 0.320493 17.07 10.5112 17.2877 
518 2 0.301553 18.2949 8.96519 19.1471 
612 2 0.342576 13.7464 7.98478 15.3796 
614 2 0.302289 13.6291 10.4349 14.0674 
654 2 0.317607 16.4358 9.14838 15.9343 
772 2 0.346224 16.911 7.68782 18.8896 
885 2 0.293376 18.4124 12.1614 15.1268 
926 2 0.321475 19.4223 11.4987 18.0889 
937 2 0.281958 16.6628 9.93282 13.7173 
36 2 0.32542 4.5609 17.6882 15.2921 
63 2 0.289336 1.78465 14.2099 15.0927 
106 2 0.280228 4.43149 14.7982 17.1804 
145 2 0.306989 0.874703 21.1821 19.6442 
311 2 0.373476 3.95988 21.015 15.6398 
334 2 0.338431 2.03415 15.2255 19.0942 
384 1 -0.960423 4.34333 15.2625 14.4052 
385 1 -0.756697 2.14523 16.535 14.0895 
398 1 -0.623745 3.78611 17.2551 19.1863 
421 2 0.332899 3.01696 19.8805 19.8144 
445 1 -0.7635 2.239 18.8616 15.3157 
456 1 -0.654538 3.87062 19.0428 17.3842 
594 2 0.3531 5.80373 20.586 15.8249 
674 2 0.3228 1.38023 18.2939 18.2563 
719 2 0.285061 0.226312 18.4338 13.5631 
793 2 0.322736 5.97492 19.2122 19.0933 
817 2 0.284233 0.29151 17.1642 16.6658 
883 2 0.319453 2.87624 16.4399 16.6892 
888 2 0.341206 4.84297 14.6021 19.4092 
968 2 0.308552 1.95237 20.8033 17.2149 
1007 2 0.270517 7.02381 17.9007 15.3849 
65 2 0.384094 11.7246 19.3375 14.166 
75 2 0.341073 10.3977 18.2053 17.962 
101 2 0.315971 7.86096 19.2493 17.0699 
195 2 0.350031 12.9058 21.5927 16.657 
233 2 0.304056 6.23195 16.7246 17.903 
332 2 0.31772 9.29484 15.4736 14.7957 
410 1 -0.530587 11.6235 16.7435 15.1872 
413 1 -0.575989 9.58785 18.2289 15.1482 
455 1 -0.723959 9.00549 21.1884 18.1075 
471 1 -0.567284 10.5195 20.253 16.2634 
478 1 -0.598189 12.5247 18.7754 16.5787 
516 2 0.326074 8.62589 17.5247 19.7734 
521 2 0.344927 11.2788 15.7401 19.4941 
625 2 0.343466 13.6986 17.7213 13.5627 
632 1 -0.696464 7.43214 15.3181 19.9448 
737 2 0.343218 9.39884 14.5964 18.3569 
777 2 0.283738 6.69534 14.7947 15.4025 
795 2 0.334891 11.5436 19.9685 19.1737 
846 2 0.306482 9.12428 16.2306 17.0542 
871 2 0.312332 8.80735 19.6634 20.2542 
946 2 0.32757 8.66118 21.8945 15.5389 
64 2 0.283616 19.0199 19.5057 18.3335 
150 2 0.304831 14.8587 17.234 16.4075 
162 2 0.305292 15.0593 14.6527 17.1988 
295 2 0.324077 14.7827 21.3987 18.6372 
329 2 0.318758 12.3825 16.3341 17.6706 
401 2 0.263256 17.6146 18.5413 15.5871 
416 2 0.2898 15.5565 19.3268 13.6992 
436 1 -0.791858 17.2998 14.8128 15.6607 
498 1 -0.644762 14.8816 19.7766 16.2917 
501 1 -0.69737 17.4619 21.4523 17.7321 
506 2 0.298997 13.8999 18.8441 18.8214 
601 2 0.299714 16.491 14.3589 19.617 
679 1 -0.864953 19.7537 16.2116 19.3283 
717 2 0.288545 17.6713 21.7842 15.0078 
744 1 -0.897081 16.4169 19.2502 18.1627 
773 2 0.280022 0.117441 20.4567 15.3977 
839 2 0.301759 17.4648 16.6226 17.9759 
842 2 0.306651 13.5377 14.7157 15.0545 
940 2 0.323492 19.3513 16.0292 14.7021 
966 2 0.280054 14.3098 15.986 19.6907 
1002 2 0.330276 15.9255 16.0786 14.057 
149 2 0.298946 0.74261 24.4294 14.9313 
163 2 0.302201 2.06805 22.921 15.0092 
200 1 -0.699669 6.2417 23.4034 15.0797 
304 1 -0.670319 3.25912 26.7392 14.5343 
305 1 -0.648775 0.991884 26.8695 15.9305 
308 1 -0.806057 2.70472 27.8859 19.4551 
312 1 -0.511745 0.892959 26.4495 18.5213 
403 2 0.336657 3.72371 27.406 17.09 
449 1 -0.727565 5.5864 25.9083 15.4605 
457 1 -0.72884 3.10946 22.6662 19.9774 
458 1 -0.664109 4.59855 21.3502 18.3134 
499 1 -0.714461 0.960714 23.9286 19.2098 
515 2 0.314064 5.73706 26.2477 18.0301 
537 2 0.339874 2.83135 25.3982 16.817 
663 2 0.316695 2.54057 23.0041 17.4849 
710 2 0.327897 3.20307 25.2782 19.6571 
757 2 0.305837 0.504765 28.3605 13.5838 
864 2 0.314985 5.48495 23.8577 19.2061 
868 2 0.341618 4.5939 23.7198 16.8813 
962 2 0.339469 1.15291 0.244395 17.539 
997 2 0.324208 5.238 27.825 20.0159 
83 2 0.313228 8.89788 23.8168 18.5421 
151 2 0.280613 10.9296 24.0096 15.3542 
152 2 0.347647 12.639 27.3447 13.4406 
216 2 0.305044 8.56707 26.6049 14.2318 
225 1 -0.631066 13.0194 24.5579 13.4659 
251 2 0.31761 12.6715 22.6056 19.8414 
261 1 -0.695817 7.52637 27.4922 16.4188 
263 1 -0.627899 7.03521 0.0491246 18.5486 
269 2 0.303866 12.1673 25.2995 18.0657 
275 2 0.312474 11.2304 22.5794 17.5974 
287 2 0.309172 12.4442 26.4726 15.4488 
330 2 0.33147 7.98028 26.3091 19.1893 
427 2 0.322465 11.1538 21.9789 13.8238 
448 1 -0.694036 6.76627 22.337 17.3834 
473 1 -0.71466 10.1102 22.02 20.2514 
475 1 -0.730129 10.715 24.5826 20.2437 
535 2 0.336705 13.2613 20.9539 14.5792 
548 2 0.304663 10.2353 27.6349 19.6287 
715 2 0.245103 9.94155 26.2947 16.9372 
901 2 0.309147 7.2176 21.7919 20.0024 
906 2 0.306422 7.75105 24.7423 16.4945 
56 1 -0.695654 16.711 27.633 15.4098 
154 2 0.335554 16.6 24.6912 15.6002 
205 2 0.353172 18.7837 25.4038 20.236 
219 2 0.342571 15.0849 26.0286 14.0075 
241 2 0.37594 14.2319 0.0704729 14.0731 
284 1 -0.76386 13.86 27.188 19.0229 
285 1 -0.686141 13.799 24.2011 15.8573 
315 1 -0.904018 18.8377 26.3589 14.7708 
344 2 0.337456 14.7775 22.6205 13.8945 
472 1 -0.683372 14.6866 26.4585 16.6767 