ITEM: TIMESTEP
154
ITEM: NUMBER OF ATOMS
1184
ITEM: BOX BOUNDS pp pp pp
0.0000000000000000e+00 2.1407312999999998e+01
0.0000000000000000e+00 3.0596664000000001e+01
0.0000000000000000e+00 2.9077241999999998e+01
ITEM: ATOMS id type q x y z 
58 2 0.28276 6.55324 3.01761 5.14077 
107 1 -0.887613 6.96205 0.73612 6.25672 
109 1 -0.636412 3.12497 0.161459 3.5666 
166 1 -0.88047 3.89153 5.19103 5.07025 
167 1 -0.730615 2.13839 4.53139 3.40543 
199 2 0.296225 1.8415 1.70638 5.41543 
218 2 0.330685 4.07968 2.77693 3.7274 
368 2 0.254653 1.32373 4.25963 5.90143 
432 2 0.329307 3.01366 3.69772 1.1764 
522 2 0.331236 0.568901 30.0709 3.61284 
577 2 0.27675 8.06386 4.86867 3.78999 
588 2 0.292602 6.12874 6.02898 5.7536 
671 2 0.335324 5.33611 4.991 2.96646 
764 2 0.279287 21.3283 2.49737 0.775968 
768 2 0.291192 4.68111 2.92881 0.660764 
944 2 0.29519 0.830042 5.07284 0.867746 
979 2 0.256848 4.21783 2.9714 6.61161 
998 1 -0.666315 2.43618 1.00659 0.389822 
1000 1 -0.667098 1.75298 2.03361 2.63193 
1020 2 0.333845 4.54514 0.206323 5.83604 
1134 2 0.274668 20.9901 3.75781 3.7274 
1169 2 0.292522 6.29373 5.42771 1.07366 
16 2 0.285174 10.6224 0.445205 2.01989 
28 2 0.270711 12.9951 5.66769 1.20548 
30 2 0.272534 12.5258 2.87081 2.81323 
74 1 -0.902291 8.17649 2.67433 7.24949 
119 1 -0.61623 14.0332 5.40652 6.36151 
372 2 0.272161 10.4887 5.12623 2.59297 
436 2 0.261359 11.1383 1.15219 5.75589 
463 2 0.277172 8.76216 0.484239 4.14838 
525 2 0.291197 8.89609 5.1135 6.96922 
668 2 0.264719 11.064 3.21622 0.112394 
850 2 0.290012 8.2031 6.70026 1.69151 
895 2 0.328832 13.0602 6.36392 3.73875 
904 2 0.270298 10.3609 6.08622 28.6891 
923 2 0.270133 9.5169 3.03077 4.91909 
941 1 -0.845453 13.3656 2.38806 5.32996 
976 2 0.313906 11.7248 4.46457 5.28043 
1011 1 -0.961517 8.61637 4.19236 0.475007 
1043 1 -1.12117 9.55402 2.75106 2.27151 
1157 2 0.284637 7.04215 2.63056 2.07662 
36 2 0.295837 15.0487 1.54824 1.36869 
91 2 0.272649 18.1124 1.86502 5.65902 
140 1 -0.626661 14.7131 4.1902 4.29569 
148 1 -1.00021 18.9236 5.34768 4.70097 
158 1 -0.764046 17.1944 3.53619 3.88524 
214 2 0.279065 17.4828 0.285752 2.67186 
246 2 0.264653 16.1772 0.130309 5.17577 
259 2 0.297333 19.5948 4.02227 6.7019 
263 2 0.30659 15.3381 1.76265 3.81591 
486 2 0.347968 16.822 4.88338 6.00635 
681 2 0.282767 19.0482 4.45123 2.00309 
778 2 0.344765 15.5779 2.99833 6.56965 
780 2 0.287726 15.4697 4.39063 1.80749 
855 2 0.262481 20.731 1.31997 5.42859 
974 1 -0.988506 17.1965 0.458512 0.253391 
1028 1 -0.939645 17.3556 2.73876 1.42295 
1177 2 0.260555 19.5628 1.42197 2.55981 
9 2 0.300914 0.584697 6.43424 2.42032 
161 2 0.297937 2.28791 7.09937 4.64717 
168 1 -0.736504 4.76896 7.31113 3.92024 
176 1 -0.642202 3.31676 6.28589 2.0244 
189 2 0.304303 6.38338 8.93561 2.32479 
221 2 0.308619 0.977746 8.6315 2.16542 
232 1 -0.669871 2.57191 11.9843 5.50133 
297 2 0.305502 6.51131 12.0431 3.29786 
414 2 0.256051 21.1132 6.71858 5.33035 
559 2 0.335859 2.05644 11.2725 2.80478 
568 2 0.294939 1.8522 9.4107 5.40421 
809 2 0.287752 4.51461 10.2475 4.47229 
846 2 0.273532 3.32083 5.92337 7.36417 
865 2 0.307571 4.61293 8.0761 0.311921 
871 2 0.276405 4.57058 11.643 1.45782 
995 2 0.288403 3.27856 8.9403 2.45213 
1057 1 -0.776285 2.08464 7.40312 29.089 
1149 2 0.272848 4.53226 8.40072 6.48735 
29 2 0.312904 11.1259 7.64812 1.58791 
118 1 -0.701137 12.375 7.46912 6.03503 
123 1 -0.751867 9.14954 9.01482 3.1817 
156 2 0.313803 13.2234 11.8385 3.22867 
173 1 -0.931848 7.36753 7.34848 4.05334 
224 2 0.302051 13.3894 11.4175 0.471343 
256 2 0.297602 10.6293 9.57111 5.98625 
383 2 0.315922 9.82826 11.5021 3.95569 
443 2 0.334412 11.0564 10.5186 2.06182 
682 2 0.302522 15.232 6.94957 4.43283 
820 2 0.318394 9.91946 6.9539 4.82911 
876 2 0.279898 7.41438 9.77657 4.97064 
988 2 0.304367 13.4615 10.5639 6.15117 
1021 1 -0.711455 11.6781 8.69877 3.81221 
1073 1 -0.692211 8.36165 11.0927 1.80384 
1079 1 -0.718173 13.3494 9.06863 1.82169 
1165 2 0.303258 8.86589 8.84916 0.476812 
1168 2 0.317904 14.2343 9.13236 4.18543 
147 1 -0.836129 19.0518 6.5677 7.0763 
497 2 0.307713 15.858 11.6518 4.33007 
504 2 0.296822 16.8141 6.00307 3.3121 
538 2 0.320474 18.1188 11.6781 2.41556 
651 2 0.288427 20.2044 9.36911 6.81248 
725 2 0.292452 15.4011 7.6238 1.55443 
814 2 0.32316 16.4167 6.4496 7.07932 
900 2 0.326712 16.3019 9.89355 5.80656 
947 2 0.289949 20.8216 9.11114 3.97319 
960 2 0.310601 18.8768 10.9134 4.85068 
1077 2 0.313575 20.0203 13.5973 4.15605 
1090 2 0.278907 19.6508 6.77593 2.61757 
1091 1 -0.746665 15.452 10.5493 2.00446 
1092 1 -0.858378 17.4242 9.68367 0.668613 
1096 1 -0.735204 19.7145 9.2125 1.61172 
1109 1 -0.657069 0.134613 11.4811 4.95862 
1117 2 0.294245 18.0598 7.83995 5.141 
1120 1 -0.68109 20.9099 11.3712 2.46706 
1135 2 0.292826 17.3492 9.0348 3.13634 
1138 2 0.281308 17.9917 7.12304 0.558208 
145 2 0.352879 0.790732 13.8731 6.13859 
177 2 0.301888 5.24276 14.7825 2.53145 
185 2 0.322 0.622002 15.318 4.09316 
195 2 0.331055 0.416437 18.2224 0.475313 
207 2 0.300471 3.92353 19.1737 4.74277 
239 2 0.340595 7.16754 13.1133 0.505098 
247 2 0.294155 4.98335 14.587 28.9227 
252 2 0.331925 1.15799 15.8935 2.09353 
293 1 -0.664802 1.535 17.825 4.78122 
294 1 -0.682623 2.35445 18.3433 2.40287 
301 2 0.292465 6.87587 14.5103 4.65291 
315 2 0.317986 3.33123 16.1751 3.76131 
748 2 0.361673 1.42179 13.2774 3.4146 
753 2 0.308657 5.33177 12.5866 6.05861 
828 2 0.38165 1.12709 16.2152 6.78307 
874 2 0.297262 3.42009 14.7336 5.28504 
898 2 0.296748 5.42343 16.1327 6.51155 
1076 2 0.247039 5.81705 17.4031 4.35338 
1101 1 -0.690447 0.849765 12.7701 0.738999 
1121 1 -0.914675 4.03713 12.8666 3.63748 
1139 1 -0.712865 3.5493 16.4711 1.08106 
1176 1 -0.775745 2.99657 13.9314 1.55719 
159 2 0.347317 10.3083 12.596 0.851025 
183 1 -0.752292 12.2687 15.0847 4.56649 
184 1 -0.748478 9.73811 14.4797 4.80375 
202 2 0.304103 13.9155 17.035 3.78202 
206 1 -0.648341 13.8268 15.9303 6.41909 
245 2 0.266648 8.41792 17.9549 2.84942 
248 1 -0.758998 8.274 14.9038 6.95762 
262 1 -0.635112 13.4878 14.6141 2.36297 
322 2 0.307622 8.32448 12.4189 5.66485 
494 2 0.31313 10.1808 13.3638 7.81278 
502 2 0.316956 12.8995 13.9672 8.06533 
512 2 0.318173 6.97361 15.7283 2.00563 
530 2 0.342182 11.2389 13.5661 2.57465 
532 2 0.241728 10.9768 17.7499 4.59783 
591 2 0.28929 8.40836 16.7503 5.2883 
878 2 0.310674 12.2271 17.4796 1.93325 
950 2 0.282397 11.4619 12.6078 5.52947 
1008 2 0.325118 11.0772 15.668 6.73633 
1061 1 -0.665538 8.59387 13.5929 2.64108 
1115 2 0.321394 13.888 13.3081 5.76679 
1118 2 0.33001 10.2508 15.8531 2.65039 
1126 1 -0.601072 9.07185 15.0028 0.540955 
1140 1 -0.692554 7.96029 17.3397 0.352981 
41 2 0.354245 18.0695 18.495 6.89818 
113 2 0.288782 18.2792 15.6783 5.22676 
194 2 0.342441 19.6057 11.6333 0.278226 
213 1 -0.7601 20.1134 15.2501 7.09273 
216 1 -0.693293 19.9505 12.6761 6.5808 
236 2 0.294582 17.7127 14.4435 2.55055 
272 1 -0.699231 20.4907 16.9514 5.19831 
290 2 0.35016 15.8896 18.9976 5.70706 
299 2 0.300017 16.3987 16.2566 6.10909 
471 2 0.284502 16.3372 17.1194 3.25608 
560 2 0.298808 17.3488 13.0995 5.41424 
627 2 0.332192 17.0235 17.3495 0.894292 
722 2 0.298993 19.5506 16.6204 2.53657 
757 2 0.332674 20.3947 14.026 1.72815 
1141 1 -0.653027 14.6431 16.4357 1.1357 
1144 1 -0.693296 15.5072 13.1681 2.16642 
1152 1 -0.689566 16.3319 14.7445 0.338091 
1160 1 -0.738835 18.8216 15.5502 0.173502 
1172 2 0.319116 15.2106 14.5874 4.37691 
23 1 -0.740838 3.56818 22.9424 4.43116 
44 1 -0.72258 6.09695 23.3836 3.69054 
45 1 -0.672211 1.67879 22.6392 2.63764 
46 1 -1.00328 2.44228 24.1822 6.40149 
283 2 0.247416 6.03378 21.3227 7.63279 
289 1 -0.988596 5.5714 18.6992 6.7587 
291 1 -0.735881 3.20267 17.7141 6.76436 
298 2 0.265555 7.82096 19.353 5.66265 
333 2 0.303481 5.10288 18.2909 1.9629 
393 2 0.293745 1.28196 19.6027 6.69756 
399 2 0.3763 4.04317 24.1846 2.0823 
509 2 0.304831 3.71583 19.8689 0.0490368 
556 2 0.304288 4.66012 21.7518 2.09088 
604 2 0.292616 5.5985 21.2496 5.30152 
744 2 0.308363 20.8679 24.3277 3.12576 
815 2 0.325515 2.51278 22.4956 0.133384 
915 1 -0.633743 1.43918 24.7246 1.23381 
929 1 -0.70304 1.25314 20.4436 1.29862 
990 2 0.320115 5.10733 24.3824 5.97348 
1022 2 0.327748 3.26011 20.6578 3.12221 
1050 2 0.295305 7.13767 23.4992 6.33424 
1150 2 0.27088 0.900386 22.4823 5.16353 
1156 2 0.255845 6.55778 20.3095 3.13596 
1 1 -0.738652 12.0877 23.1238 6.41589 
2 1 -1.00732 8.10093 21.9725 4.56164 
5 1 -0.961876 9.32737 19.4353 1.02761 
22 1 -0.712459 13.7088 21.11 6.05894 
241 1 -0.693625 11.8192 19.6795 0.294594 
255 1 -0.96094 9.54101 22.7755 6.52577 
404 2 0.296738 8.39579 24.5636 3.98435 
515 2 0.273842 11.7439 19.9055 2.87765 
582 2 0.288752 10.5238 23.2798 4.12455 
635 2 0.283125 11.0268 20.6613 5.88686 
673 2 0.324983 12.9651 22.3767 3.88324 
767 2 0.278465 7.88057 22.429 1.65596 
833 2 0.330443 13.9049 23.8207 2.76428 
841 2 0.318881 13.112 18.5477 5.98342 
892 1 -0.715305 13.103 23.9674 0.13572 
893 1 -0.622999 13.1056 21.6965 1.23297 
1005 2 0.291713 10.7593 22.6321 1.44656 
1053 2 0.302983 14.0847 19.8242 3.59589 
1128 2 0.262408 9.68681 20.5349 3.33051 
24 1 -0.69781 18.0279 20.6436 5.13278 
25 1 -0.674216 15.7553 21.6434 4.51419 
52 2 0.295547 17.9915 22.0168 0.931435 
135 2 0.318685 1.05802 20.2779 3.9407 
192 2 0.325457 16.4283 24.0698 3.34254 
287 2 0.300485 20.5434 21.443 2.69149 
318 2 0.327939 14.6216 19.2086 1.18712 
343 2 0.33644 21.1812 18.3217 2.83437 
355 2 0.317841 16.8956 19.7696 2.8625 
507 2 0.267582 20.1213 22.2879 5.86291 
535 2 0.387746 15.9909 21.2088 7.08267 
615 2 0.325433 20.3749 19.5973 5.26916 
685 2 0.309036 18.9641 19.3383 2.22498 
720 2 0.297204 17.2104 23.1439 6.29372 
906 1 -0.694543 15.4744 21.7656 2.00275 
910 1 -0.688803 15.5905 23.975 0.76539 
984 2 0.278736 18.2977 22.6264 3.35143 
1027 2 0.333304 14.6668 23.7138 5.77487 
1065 2 0.320704 20.9098 22.9921 0.348365 
1142 1 -0.917451 18.4057 18.2042 4.41505 
1162 1 -0.724237 20.2275 20.2902 0.281428 
11 2 0.307475 6.13303 25.9429 4.14703 
18 2 0.311851 1.60342 27.0378 5.92598 
21 2 0.323563 2.15164 25.0428 3.86757 
34 2 0.275647 6.1225 0.508585 3.79241 
39 2 0.322319 21.2639 27.2753 3.71324 
76 2 0.302487 1.57697 27.1886 2.41698 
96 1 -0.740867 4.05402 28.242 6.85853 
108 1 -0.772251 2.17817 29.666 5.74539 
117 2 0.356839 3.28819 26.7074 1.15659 
162 2 0.32048 3.02747 28.1613 3.87057 
405 2 0.282752 0.842145 28.4074 0.71758 
440 2 0.318337 5.17224 28.7845 3.08399 
475 2 0.320751 0.624384 30.3929 1.62043 
646 2 0.34761 6.17981 26.5787 7.46487 
707 2 0.295371 5.94366 28.447 5.18919 
866 2 0.286723 1.04875 25.5573 8.58995 
902 1 -0.661187 6.7662 24.8261 1.60743 
992 1 -0.675176 3.24506 29.4173 1.40295 
999 1 -0.685467 5.47921 28.323 0.572861 
1004 2 0.314011 3.86857 26.0826 5.14092 
1034 2 0.353149 4.70257 26.1687 2.38752 
59 1 -0.910311 10.6998 29.0553 3.58694 
62 1 -0.921659 12.788 27.8697 4.27551 
63 1 -0.901031 9.64032 27.8631 1.63568 
81 2 0.330638 12.7294 25.3658 5.11891 
142 2 0.289022 9.24748 25.374 1.75612 
164 2 0.277883 12.2253 28.2591 1.70754 
179 2 0.298641 8.03413 29.046 5.98513 
319 1 -0.620973 13.1261 27.4304 6.78679 
351 2 0.265769 11.8713 25.2763 2.13345 
391 2 0.297954 8.49875 28.0045 4.07925 
799 2 0.257036 7.99633 26.3199 6.25863 
824 2 0.289551 10.8498 28.7879 6.04513 
851 2 0.280714 12.9177 30.5506 4.11618 
883 2 0.288487 7.76162 29.8705 1.57248 
958 1 -0.659905 7.21328 27.2576 2.10463 
1006 2 0.269214 12.647 0.525512 0.350856 
1007 2 0.288001 10.5619 26.5391 4.16711 
1133 2 0.280087 10.4989 27.2145 7.65722 
17 2 0.313862 16.7265 26.2239 4.77498 
83 1 -0.729188 17.4011 28.6012 6.32406 
85 1 -0.6674 19.2468 27.2145 5.28279 
87 1 -0.709533 20.9887 29.0718 5.80569 
188 2 0.273734 18.6747 24.7109 5.52205 
240 2 0.316313 18.9447 29.7556 4.50794 
644 2 0.323591 18.6106 24.613 0.94536 
687 2 0.324205 14.9315 28.6579 5.36108 
746 2 0.278754 19.6505 28.4918 2.06643 
967 2 0.262419 21.3022 25.2821 6.03782 
971 1 -0.919584 16.6196 26.0987 1.79951 
972 1 -0.747236 18.8979 26.0384 2.97777 
973 1 -0.930393 20.7619 26.2411 1.24317 
1031 2 0.342645 15.1655 25.7069 6.31127 
1052 2 0.292202 14.5252 26.3719 3.30607 
1102 2 0.303305 17.1122 28.034 3.47075 
1108 2 0.255715 17.3473 28.3522 0.305334 
1127 2 0.260896 15.0999 27.9778 0.814325 
1146 2 0.250239 14.8269 29.5644 2.41945 
27 2 0.332776 1.98537 3.49874 11.8587 
54 2 0.386049 3.97508 -0.0607835 14.0619 
60 2 0.294717 6.36716 2.90557 11.4817 
124 2 0.342255 6.39076 3.66427 14.1779 
157 2 0.282026 6.34272 4.74347 7.44155 
165 1 -0.687509 0.428083 4.23927 10.0342 
169 1 -0.881884 2.51958 5.67978 9.72457 
211 2 0.3031 6.0117 1.6692 8.43297 
402 1 -0.940367 0.836933 1.687 10.1481 
407 1 -0.724745 2.21843 0.682195 12.0891 
427 2 0.256495 0.981012 4.45551 14.8389 
448 2 0.275986 2.07171 3.12537 8.32322 
465 1 -0.763395 6.2072 1.10418 13.2549 
467 1 -0.62801 4.0913 2.24638 12.8632 
543 2 0.29585 3.77071 4.8532 14.0941 
546 2 0.309495 1.95451 6.11814 12.3261 
599 2 0.282895 4.43037 4.93773 11.6883 
650 2 0.28197 3.37578 0.0151253 8.25418 
813 2 0.283702 3.4815 2.03869 10.2018 
827 2 0.267875 4.80613 4.31842 9.49122 
1147 2 0.280308 7.43062 5.81843 11.99 
1153 2 0.287781 0.387407 0.0625422 7.89448 
38 2 0.285153 10.5566 2.92193 8.01493 
42 2 0.284742 11.5853 1.24204 13.7477 
64 1 -0.679313 13.1944 1.60474 11.4749 
114 1 -0.721105 13.1818 3.38725 7.60211 
116 1 -0.698208 14.5472 2.11287 9.42479 
120 1 -0.882542 7.7759 6.25266 9.26193 
122 2 0.280522 8.13525 0.251831 11.964 
136 1 -0.906045 7.5206 3.77232 9.41262 
137 2 0.326125 9.83084 4.85651 10.0431 
180 2 0.292948 12.3929 3.88545 10.1155 
219 2 0.285838 12.0147 1.0171 9.05294 
344 2 0.274047 12.6625 29.8646 7.48298 
379 2 0.271113 10.5539 1.63967 11.0942 
457 2 0.233437 9.62529 4.54851 14.8574 
483 1 -0.940183 10.5959 5.78636 12.5485 
590 2 0.301406 14.235 0.896245 7.09431 
739 2 0.305005 13.2159 6.05153 12.04 
927 2 0.245916 9.07238 3.35844 12.2675 
1032 2 0.272639 12.2038 3.76692 12.9826 
1039 2 0.274668 8.34469 1.3649 9.60495 
1054 2 0.285177 9.1199 0.0933342 7.5994 
1094 2 0.308969 11.4928 5.53217 7.57986 
1106 2 0.299189 8.57754 1.56381 14.6501 
139 1 -0.69159 16.7352 2.55307 10.7226 
146 1 -0.690839 17.6167 4.94889 10.9824 
149 1 -0.683022 19.5483 5.20009 9.26165 
251 2 0.308297 18.1391 0.711054 13.1917 
313 2 0.321075 21.1984 30.1397 12.9414 
380 1 -0.565935 15.3864 1.71652 12.682 
415 2 0.301868 16.26 0.128501 10.6888 
439 2 0.330349 17.955 3.42746 12.9915 
444 1 -0.681493 17.8843 6.02185 13.3882 
573 2 0.331112 14.8007 3.98877 11.3646 
606 2 0.298812 15.459 4.2956 13.5465 
774 2 0.316699 15.7937 6.74164 11.7608 
800 2 0.281418 20.5378 2.48988 8.25949 
884 2 0.287969 16.0157 30.4634 7.83882 
908 2 0.276679 17.6803 1.51367 8.33199 
937 2 0.322567 17.4543 3.86806 8.47557 
946 2 0.325324 19.4442 2.91339 10.624 
1001 2 0.318374 20.5709 4.64129 12.4551 
1067 2 0.31651 15.2019 4.63266 8.97641 
1130 2 0.287348 21.0394 1.93762 12.4485 
163 2 0.301041 0.079446 12.024 11.4147 
170 1 -0.857915 2.09625 10.0385 9.36668 
220 2 0.293654 5.03337 7.34479 11.8685 
233 1 -0.713935 3.66338 10.8504 7.52335 
332 2 0.30126 3.22011 10.5014 11.8637 
408 2 0.319533 4.57866 9.76245 9.56793 
452 2 0.264366 1.44603 10.4836 13.7764 
466 1 -0.703226 2.8478 8.02736 10.7396 
491 2 0.280055 0.53762 9.23932 11.1268 
518 2 0.296481 5.06373 6.98845 14.5833 
521 1 -0.972605 5.00567 9.64137 14.2682 
523 1 -0.931797 3.0362 8.31144 13.313 
623 2 0.276259 5.18512 7.15205 9.12985 
684 2 0.250163 7.29257 8.45772 13.4683 
751 2 0.260226 5.79404 9.72644 11.9123 
1003 2 0.294997 1.75918 8.05662 7.98473 
1036 2 0.296683 0.298145 5.84803 7.92472 
1116 2 0.288554 6.29013 10.3658 7.43436 
1166 2 0.291066 6.96866 11.1417 10.1871 
75 2 0.299708 7.61161 8.75916 9.77231 
78 2 0.329836 11.7109 11.1797 11.2718 
121 1 -0.681968 10.619 9.36824 9.70254 
126 1 -0.75578 12.6617 8.97437 8.03313 
186 1 -0.774886 9.46088 11.7283 9.96157 
311 2 0.279276 13.2813 10.5364 13.4358 
331 2 0.303114 11.723 11.3446 8.32704 
416 1 -0.659416 9.40638 7.36418 10.8948 
421 2 0.259991 7.71584 7.7519 6.91986 
422 1 -0.869494 14.1101 8.09692 13.1532 
434 2 0.330458 11.5508 8.51839 12.4906 
461 2 0.32847 10.2155 7.44928 8.12635 
474 1 -1.00038 12.1847 6.78542 14.2788 
481 2 0.29022 9.08631 10.3567 7.69677 
912 2 0.300025 9.216 9.88202 11.9128 
969 2 0.312015 13.3191 9.19949 10.5456 
1058 2 0.329031 11.8438 6.97784 10.3907 
1089 2 0.303094 13.3461 6.47904 8.76317 
1122 2 0.251375 10.2738 11.2655 14.1179 
86 2 0.279577 19.8132 9.46451 12.1008 
125 2 0.266042 15.6172 10.7057 14.5975 
129 2 0.278749 15.2231 7.62344 9.79076 
182 1 -0.753263 15.1189 9.81972 8.40586 
208 1 -0.77837 17.5106 8.76015 7.6467 
209 1 -0.704829 15.6123 12.0142 7.21099 
210 1 -0.641776 17.9928 11.2484 7.4217 
309 2 0.340057 14.8459 7.91702 6.79419 
392 2 0.305395 17.4199 9.82579 9.96091 
430 2 0.29425 19.0662 7.97913 14.6595 
431 1 -0.732294 16.5869 8.2551 13.8338 
446 1 -0.93953 17.5637 10.4523 12.9068 
498 1 -0.953842 19.8114 11.5473 13.4556 
551 2 0.327027 19.7575 6.39401 11.6337 
621 2 0.3335 17.4486 6.72398 9.17129 
708 2 0.253158 0.199575 7.55273 13.6332 
849 2 0.28119 19.9241 11.1435 9.23511 
854 2 0.313945 17.9574 8.10516 11.6257 
925 2 0.286957 19.8937 8.15309 9.12842 
991 2 0.339215 0.832847 11.2282 7.55555 
993 2 0.296718 15.338 10.1083 11.65 
1016 2 0.319771 0.356949 6.82835 10.466 
115 2 0.266606 6.2148 15.9152 9.77244 
226 2 0.311658 5.91592 14.6588 7.94888 
231 1 -0.922951 5.21924 12.4099 8.79512 
250 1 -0.780041 7.45601 17.3166 7.85186 
257 2 0.305419 2.53928 12.497 9.79441 
270 2 0.259772 5.13642 12.7542 11.3136 
281 2 0.299572 2.32982 13.2906 12.622 
284 1 -0.662091 2.9814 18.1353 11.0543 
292 1 -0.684973 1.73866 17.9791 8.85873 
308 2 0.338708 2.01649 18.1497 13.5319 
336 2 0.358989 2.5163 15.7223 9.8711 
352 2 0.321591 5.02693 16.9621 12.1081 
370 2 0.294966 0.0897506 13.2217 14.4785 
500 1 -0.687049 0.597484 14.6359 11.1561 
514 1 -0.990286 4.59955 14.6849 13.2382 
585 1 -0.69557 2.49774 15.9491 12.3662 
665 2 0.309082 2.82332 15.4278 7.97222 
785 2 0.31397 3.13814 13.4227 7.6842 
966 2 0.298753 21.3079 16.1188 13.0836 
1041 2 0.334145 0.319787 13.6038 8.58387 
1086 2 0.31698 4.67315 17.455 9.01682 
1105 2 0.283826 4.32834 14.5881 10.5388 
14 2 0.268345 7.11944 14.6192 12.468 
105 2 0.301035 8.17215 14.0097 10.304 
130 2 0.251612 11.2056 17.6145 13.3526 
197 1 -0.755473 7.69295 12.6669 8.19867 
201 1 -0.599581 14.1329 15.6424 9.73794 
203 2 0.256404 9.57987 15.694 12.1276 
260 1 -0.646594 13.0478 17.3949 8.27389 
410 2 0.301267 14.0112 13.2503 11.0525 
442 2 0.309469 11.3483 13.6733 10.3927 
477 1 -0.938071 9.84384 12.9814 12.2056 
478 1 -0.940178 12.2872 12.9166 12.9705 
479 1 -0.923151 13.6746 14.8203 13.9098 
517 2 0.291 10.212 17.8968 7.31371 
579 2 0.299718 13.878 11.8864 9.25775 
731 2 0.278185 7.69593 17.4526 10.9974 
786 2 0.289305 11.3591 15.7957 9.45126 
787 2 0.236414 7.56671 11.9343 12.7959 
804 2 0.26853 7.37332 18.3885 13.3517 
825 2 0.307185 9.16043 15.9883 9.13055 
852 2 0.325307 12.5129 15.5272 11.8745 
1131 2 0.293018 13.84 17.5435 13.8233 
1159 2 0.292948 10.8845 14.5855 14.3126 
71 2 0.303379 19 18.3036 12.4505 
92 2 0.303636 16.5438 12.1417 9.62772 
150 2 0.286054 18.2274 16.4847 8.51734 
204 1 -0.693952 15.3667 14.4923 7.84595 
258 2 0.30078 19.601 13.897 9.74275 
276 2 0.289776 17.7328 15.42 12.4615 
412 2 0.332997 20.5934 17.9931 7.63429 
480 1 -0.698762 15.1102 15.9783 12.1324 
499 1 -0.945294 19.959 13.9232 12.5291 
544 1 -0.694466 16.4298 18.1111 12.9879 
553 1 -0.659122 -0.0358253 16.1262 9.18866 
576 2 0.349756 16.5629 17.5687 10.5279 
636 2 0.373566 15.6015 17.2861 8.14841 
837 2 0.296636 16.2493 15.9874 14.5357 
860 2 0.277437 15.4032 13.1359 12.7647 
899 2 0.295967 18.2145 12.3809 11.4876 
901 2 0.258554 19.4254 15.5811 14.6574 
932 2 0.322287 17.9065 13.8524 7.76877 
1100 2 0.284939 19.3951 16.0615 10.9602 
1151 2 0.305982 16.5342 14.7121 10.1835 
7 2 0.246214 1.1396 22.8419 8.18667 
286 2 0.293834 6.62307 19.3831 9.16472 
353 1 -0.609212 2.73637 20.4284 12.2645 
398 2 0.255473 2.99886 21.3328 6.45448 
584 1 -0.665987 4.81575 21.8256 12.7524 
674 2 0.284708 3.52659 22.2338 10.3137 
709 2 0.2798 6.12139 22.4062 10.3366 
821 2 0.305847 0.0730735 20.4582 12.5003 
829 2 0.282872 7.97114 24.3626 8.33516 
970 2 0.283276 0.419844 23.1603 10.761 
994 2 0.27546 1.20504 20.3207 10.0116 
1010 2 0.277021 3.7541 19.8745 8.57752 
1012 2 0.326609 2.39035 22.963 12.8711 
1167 2 0.296143 5.19257 19.5767 11.2734 
1173 2 0.284893 8.78875 20.4131 7.1353 
1179 2 0.29167 4.30344 23.2319 7.90042 
32 2 0.244722 8.51022 23.8648 11.15 
95 2 0.255663 6.84321 23.3812 13.3387 
144 2 0.296574 11.622 19.5991 8.77627 
249 1 -0.957749 9.02701 18.8486 9.31886 
268 2 0.265231 9.84418 19.8171 14.4843 
274 1 -0.605868 14.2876 19.6337 8.11879 
304 1 -0.974713 10.0131 21.5376 12.5707 
305 1 -0.949289 12.2267 22.0816 13.7217 
306 1 -1.01532 9.50915 19.123 11.8462 
345 2 0.295664 11.1946 17.8218 10.4341 
397 2 0.283144 14.9258 20.3782 12.7649 
459 2 0.280895 7.59397 20.8331 11.9418 
462 2 0.275882 10.8937 23.5662 8.89851 
536 2 0.335808 14.0808 18.2708 10.7034 
555 2 0.285313 10.9231 23.856 12.1889 
561 2 0.283498 6.60097 20.7842 14.7521 
805 2 0.288316 12.1364 19.9783 12.0861 
889 2 0.275229 12.8163 22.3279 11.1855 
989 2 0.30195 12.4756 21.5159 8.4704 
1097 2 0.294618 10.1518 21.0424 10.1878 
1158 2 0.260561 8.61791 21.6779 8.84202 
56 2 0.303638 20.8324 18.6605 14.3829 
175 2 0.291566 19.5379 21.2129 10.8347 
187 2 0.271779 17.3306 22.774 12.2642 
264 2 0.319469 18.3242 20.523 13.7867 
273 1 -0.661202 18.4598 20.9289 7.61014 
275 1 -0.565383 16.7206 19.6718 8.99429 
303 2 0.297787 19.1714 18.9719 9.83134 
324 1 -0.918334 19.3544 23.8997 10.6639 
403 2 0.274554 20.9606 20.4689 8.23504 
541 1 -0.851037 17.0853 20.0185 11.4539 
550 1 -0.981738 19.8966 22.8316 8.44504 
637 2 0.323452 0.327509 17.9218 11.1524 
717 2 0.28973 14.7952 22.4529 14.1367 
784 2 0.278495 20.2911 23.0799 13.195 
868 2 0.306433 14.9475 21.125 10.2507 
975 2 0.320196 14.3802 23.1459 8.27368 
996 2 0.287636 17.1021 23.8182 8.43361 
1069 2 0.326524 17.5265 22.1617 9.70465 
1098 2 0.266123 15.281 24.0024 11.3376 
10 1 -0.901561 4.76518 24.2103 11.8461 
47 1 -0.71735 5.54985 24.8309 9.49712 
57 1 -0.722283 3.72394 25.8428 7.86687 
106 1 -0.694883 6.10059 29.5462 7.78351 
198 2 0.274392 1.14387 25.2311 13.1901 
227 2 0.358363 5.45107 27.5356 9.09904 
242 2 0.277657 3.90651 29.3719 11.2284 
357 1 -0.759086 1.98777 28.7654 12.9514 
411 2 0.308862 2.88803 24.8516 10.3112 
429 2 0.286416 2.98137 27.9988 9.26476 
539 2 0.298382 1.3736 28.0309 7.73892 
575 2 0.227932 6.10457 26.587 15.6091 
580 2 0.279227 3.61098 26.4791 13.0137 
592 2 0.300553 19.8035 25.3319 8.61275 
607 2 0.273695 5.34392 0.350676 10.8784 
676 2 0.254061 6.66435 26.0689 12.514 
721 2 0.298419 1.88774 26.9958 11.0047 
1112 2 0.292194 5.03742 26.8422 11.0056 
1119 2 0.268844 5.8292 28.8909 13.2528 
35 2 0.271327 10.112 29.3006 9.72819 
72 2 0.335887 14.019 30.1389 12.9184 
110 2 0.306878 14.1208 30.0477 10.0355 
277 2 0.321361 7.76212 29.4533 14.7854 
339 1 -0.888038 8.08154 28.0435 8.29971 
341 1 -0.904551 7.54002 26.3028 10.0146 
362 1 -0.888164 11.9189 29.9865 11.5033 
363 1 -0.684612 12.7719 25.1927 7.8347 
364 1 -0.888173 10.0592 29.9305 13.1762 
382 1 -0.966971 13.3071 24.34 13.1158 
395 2 0.278042 13.0355 25.0911 10.4294 
400 2 0.272804 11.601 26.5216 12.8153 
438 2 0.270154 14.3941 26.8367 12.5364 
649 2 0.305104 12.1511 28.704 14.0064 
655 2 0.294983 7.01862 29.0549 10.2927 
754 2 0.290708 8.84602 27.8453 11.9409 
914 2 0.243163 9.04239 25.3363 14.0192 
963 2 0.290197 10.332 25.1874 6.57108 
1045 2 0.283814 12.7376 27.7892 9.73271 
1059 2 0.257015 10.149 26.1303 9.98445 
84 1 -0.944147 19.159 30.2371 7.12627 
193 2 0.312588 14.7788 28.3837 14.7678 
317 1 -0.719551 15.3739 27.9011 7.84898 
320 1 -0.877224 15.0599 25.5944 8.80618 
325 1 -0.886168 21.1494 25.645 10.9283 
337 1 -0.744 21.1245 27.519 12.6451 
388 1 -0.882552 18.97 28.8737 12.7024 
449 2 0.274906 17.7583 28.8164 9.06579 
537 2 0.329068 17.3032 26.7135 13.2529 
549 2 0.293913 18.9308 27.2154 10.7919 
570 2 0.317677 19.9638 27.765 7.70875 
626 1 -0.90112 15.6847 24.8703 13.9218 
639 2 0.301573 19.383 25.3945 12.8932 
726 2 0.25911 19.4941 0.0139331 10.4088 
756 2 0.265257 15.6243 27.5485 10.427 
765 2 0.307928 17.4294 26.309 7.67426 
803 2 0.267219 17.2183 25.4118 10.5756 
826 2 0.309231 16.462 29.2192 12.3988 
945 2 0.294354 1.06545 29.7723 10.4007 
1178 2 0.282353 20.9594 28.1059 9.95498 
33 2 0.193591 5.47556 2.54212 20.754 
77 2 0.290785 1.12287 5.37788 22.1488 
111 2 0.279758 0.318323 3.53312 18.9917 
131 2 0.289779 0.158586 2.6147 21.4884 
342 2 0.289058 6.26068 4.86847 18.6973 
437 2 0.255615 2.72906 4.2259 17.0784 
464 1 -0.45235 6.02166 1.31515 15.6591 
470 1 -0.475438 4.02412 2.55677 15.3176 
472 2 0.250672 2.72476 1.77702 19.499 
527 2 0.230538 3.26766 4.33496 19.996 
654 2 0.315062 1.62936 1.85516 14.3522 
664 2 0.279723 7.25761 6.17361 15.9174 
714 1 -0.611101 7.25997 3.16322 16.7105 
724 2 0.342518 1.7347 29.9155 15.2943 
755 1 -0.747348 0.229175 0.759594 19.3662 
758 1 -0.827569 5.20286 4.48144 16.3318 
766 2 0.314707 5.03532 2.31315 17.8402 
836 2 0.30889 1.49366 1.64764 16.9403 
1044 2 0.253174 5.63217 5.34901 21.5355 
13 2 0.284449 11.9166 4.84033 18.3601 
19 2 0.273887 14.379 3.84294 19.5632 
65 2 0.314598 10.0012 1.43412 18.6587 
153 2 0.302771 7.83728 0.480692 17.4043 
223 2 0.292621 13.2103 0.21647 15.9747 
307 2 0.301483 10.2964 2.06214 21.8956 
321 2 0.246281 11.6033 30.4702 20.9801 
334 2 0.306404 8.92883 4.74956 17.8138 
361 2 0.233522 8.11954 0.155841 20.5567 
374 1 -0.985718 13.3012 2.77491 17.3335 
424 1 -0.885318 12.0734 2.49384 19.5355 
433 1 -0.66381 9.88227 3.78502 19.9059 
545 2 0.249702 12.9303 4.80072 15.6628 
605 2 0.316746 8.20155 6.09525 20.4604 
622 2 0.272459 10.8579 2.32483 16.587 
713 1 -0.925384 7.68393 2.65656 19.1586 
734 2 0.265017 13.2378 2.54001 22.0049 
769 2 0.33465 12.0723 4.42757 21.2416 
811 2 0.275986 7.83261 3.23524 21.6703 
278 2 0.29207 17.8343 5.02033 15.7804 
310 2 0.254593 20.2593 5.50307 19.6107 
394 1 -0.90986 15.3786 1.31728 17.097 
413 2 0.274487 20.38 30.57 15.3171 
445 1 -0.980023 20.0716 5.55922 14.7712 
453 1 -1.02286 20.2371 4.41426 17.0617 
524 2 0.292325 18.0425 0.448785 16.542 
589 2 0.267799 16.1279 2.14155 20.0126 
653 2 0.268391 16.5705 0.111441 19.232 
656 2 0.235862 18.2541 6.50447 17.422 
690 2 0.314072 19.327 2.05313 19.8016 
703 1 -0.669901 20.3878 0.170113 21.5765 
728 2 0.259886 17.455 4.78323 19.5644 
752 1 -0.950849 20.4138 1.84314 17.3407 
920 2 0.32041 18.5911 3.00521 21.4473 
924 2 0.302648 16.8578 2.54485 15.0898 
1023 2 0.320776 14.0336 2.26947 14.8437 
1066 2 0.276957 18.1461 2.89609 17.8472 
1114 2 0.288432 19.9216 2.81668 14.9832 
1143 2 0.262679 15.6121 3.88811 16.9558 
1155 2 0.287848 19.6651 5.15758 21.8081 
151 2 0.27169 1.39945 9.41759 18.2937 
261 2 0.276075 2.5508 12.5355 15.6135 
450 2 0.258734 7.12337 10.9087 15.1549 
451 2 0.274368 2.83042 9.00257 19.9834 
460 2 0.238982 1.74135 6.38129 18.7517 
520 1 -0.925472 6.1478 8.79193 16.3727 
619 2 0.266434 5.45089 7.91623 20.3942 
743 2 0.281067 4.46963 11.2231 21.1762 
759 1 -1.0159 3.23673 6.61522 21.1451 
772 1 -0.722575 6.85538 10.2975 20.4596 
795 1 -0.94367 0.856052 7.48113 20.847 
802 1 -0.69801 0.402592 9.99278 21.0917 
879 1 -0.90055 1.2491 11.8921 17.6157 
882 2 0.259329 4.58938 6.94267 17.6391 
957 2 0.226652 2.31764 7.35079 15.6913 
997 2 0.272483 3.54031 10.0691 16.3179 
1063 2 0.288368 5.07694 9.85955 18.488 
1103 2 0.244734 21.3924 10.0628 15.8836 
67 2 0.319998 11.7255 9.31132 20.4184 
94 2 0.285951 12.1297 12.1463 20.3964 
174 2 0.328727 7.67519 7.69091 18.5616 
205 2 0.242628 10.5911 6.89248 16.8574 
335 2 0.299426 12.7436 8.20075 18.3907 
419 2 0.335382 9.51423 11.467 19.5904 
423 1 -0.909101 11.8468 10.8664 18.0287 
441 2 0.262027 11.5912 9.44159 15.7602 
488 2 0.325311 13.9799 11.0763 21.9571 
519 1 -0.659729 7.59219 10.2713 17.9767 
583 2 0.271914 8.76224 8.84844 16.0073 
608 2 0.265013 9.64347 7.60594 13.9252 
700 2 0.330914 10.3754 6.84208 19.9701 
747 2 0.277436 9.5063 11.6732 16.9085 
781 1 -0.603068 9.05585 9.1806 20.7496 
788 1 -0.67499 14.0186 10.5013 19.3598 
817 1 -0.666734 9.91268 9.23795 18.3778 
823 2 0.255191 12.7684 12.2934 15.4521 
896 2 0.287998 13.8976 8.08603 15.6527 
141 2 0.269062 16.6089 8.44365 16.487 
302 2 0.277936 17.8439 7.79867 19.9328 
420 2 0.262295 18.4385 10.4409 15.2912 
503 2 0.306164 16.6889 10.5303 19.879 
511 2 0.296866 19.1291 10.3545 21.1651 
562 2 0.256069 14.9248 6.23338 17.8 
593 2 0.246636 16.5887 11.946 17.4308 
662 2 0.227697 18.8329 9.81438 17.8592 
695 2 0.286342 14.3353 10.321 16.8734 
730 1 -0.979369 15.699 6.46668 20.3154 
732 1 -0.937265 15.5591 8.50914 18.7973 
779 2 0.231794 21.0009 6.99989 16.7777 
789 1 -0.93821 20.7752 11.092 19.05 
791 2 0.304773 14.4299 8.5701 21.1465 
806 2 0.299214 15.3412 6.10747 14.6399 
1154 2 0.270495 20.5279 8.40071 19.2814 
68 2 0.275352 2.58449 14.1409 21.5847 
73 2 0.253939 6.83798 17.156 21.0235 
215 2 0.258279 4.66363 12.1707 14.0312 
253 2 0.313265 0.434151 13.5589 19.5037 
285 2 0.303717 1.61912 12.015 20.2595 
300 2 0.286062 5.30391 14.4706 15.7521 
326 2 0.283684 4.91899 14.1823 20.7642 
329 2 0.269512 3.55111 16.5364 17.0858 
376 2 0.286782 3.84083 16.9564 21.0609 
386 2 0.254731 1.67112 18.2078 16.4988 
505 2 0.301366 0.535392 16.3837 18.5597 
528 1 -0.956155 2.27936 17.9607 19.3225 
571 1 -0.94395 6.45261 16.15 14.2439 
572 1 -0.937868 2.78794 15.4648 19.1957 
694 2 0.262093 5.70109 15.5562 18.668 
762 2 0.253367 5.98947 12.3565 16.9731 
839 2 0.276453 3.67409 13.4295 17.9898 
848 2 0.303618 4.09719 17.087 14.4422 
880 1 -0.939509 1.43552 14.3863 17.3385 
885 2 0.249427 3.46948 11.7848 19.0459 
962 2 0.251966 0.73269 15.9812 15.4783 
1084 2 0.327369 0.855132 16.1579 20.8543 
1093 2 0.314519 6.73777 12.6153 19.332 
1148 2 0.287087 2.60251 14.9407 14.9277 
90 2 0.26682 12.6831 17.01 21.7819 
99 2 0.303412 8.34456 14.2078 18.4908 
191 2 0.257293 10.7832 13.2726 17.1218 
225 2 0.286612 13.957 14.947 20.4212 