ITEM: TIMESTEP
178
ITEM: NUMBER OF ATOMS
1360
ITEM: BOX BOUNDS pp pp pp
0.0000000000000000e+00 3.1591949000000000e+01
0.0000000000000000e+00 3.0023095999999999e+01
0.0000000000000000e+00 2.2103677000000001e+01
ITEM: ATOMS id type q x y z 
6 2 0.3134 2.67471 3.34574 2.74428 
57 2 0.313342 0.251972 2.00461 5.80016 
85 2 0.282087 2.79237 0.747928 0.791964 
176 2 0.283406 1.65866 5.26171 5.70581 
178 2 0.275895 5.42118 6.35975 0.256026 
258 1 -0.918891 0.66399 29.5147 6.23163 
316 2 0.296054 5.86375 3.94872 2.09075 
375 2 0.250154 6.50274 0.585297 3.8401 
386 1 -0.705415 1.43804 5.70264 2.93031 
404 1 -0.80111 2.36955 0.669721 4.73547 
551 2 0.274921 1.99716 5.54625 8.49154 
552 2 0.265515 3.74467 3.22506 8.1113 
613 2 0.293836 5.28048 6.63927 4.87582 
635 2 0.270426 4.33114 1.68736 2.85165 
740 1 -0.701324 4.22976 3.18535 0.20188 
771 1 -0.854176 31.591 4.34196 1.50426 
1030 2 0.272381 2.76492 3.40218 5.51669 
1047 2 0.270517 4.70031 1.1831 5.89185 
1273 1 -0.699698 3.02957 5.35434 0.983048 
68 2 0.267556 12.3264 6.00821 3.6371 
119 1 -1.01469 12.4053 3.32364 7.70285 
136 1 -0.997913 9.59822 2.73079 1.52281 
221 2 0.251405 8.53881 1.1631 5.41905 
327 2 0.261378 10.6828 0.445343 7.26304 
351 2 0.242563 10.77 4.98249 0.286167 
405 1 -0.964634 7.94582 2.82511 3.46101 
449 2 0.227745 11.935 3.48675 2.43257 
495 2 0.268337 11.7691 1.53419 0.360675 
701 2 0.277859 12.374 1.04897 6.24022 
732 1 -0.963238 7.24707 5.14204 4.12432 
762 1 -0.989987 9.73325 0.268837 0.973496 
834 2 0.281377 7.36012 1.61546 1.2618 
850 2 0.275154 7.36745 0.909928 7.27714 
873 2 0.270876 8.5466 3.73633 5.94952 
874 2 0.242106 8.18782 29.5005 2.7616 
966 2 0.254074 11.4333 3.10782 5.21079 
1053 2 0.282592 9.64148 4.73935 3.33264 
1072 2 0.252662 11.3412 28.4799 2.24765 
1076 2 0.276017 10.1553 1.29335 3.48656 
1096 2 0.254654 10.2402 6.09328 5.43901 
1107 2 0.269547 8.0298 4.7725 1.3032 
1213 2 0.273544 5.69906 3.3204 5.07024 
121 1 -0.793336 14.6683 0.546737 5.12574 
169 1 -1.00847 15.7011 0.332531 2.7362 
181 2 0.278665 16.7355 4.52865 0.816951 
243 2 0.287956 17.8919 0.425827 6.60643 
268 1 -0.701374 19.2412 4.42911 2.6877 
423 2 0.255639 13.0686 0.839865 3.03722 
517 2 0.266625 13.7776 4.45805 1.08603 
597 2 0.23412 14.4806 3.82389 3.52637 
624 2 0.26041 16.3435 4.49631 5.89602 
738 1 -1.01408 14.1826 2.94743 5.91312 
853 2 0.240147 14.8022 1.81979 0.868457 
890 2 0.292691 19.0207 2.24987 4.14649 
1015 2 0.257675 17.1769 2.73048 2.01101 
1033 2 0.270748 14.9358 6.6722 2.47382 
1120 2 0.2916 18.0468 0.841967 1.40892 
1133 2 0.280985 16.3851 2.41958 4.25482 
1206 2 0.275097 18.9275 2.79188 6.38184 
208 2 0.256025 23.7022 2.34596 5.1932 
292 2 0.284012 23.0254 2.41172 2.4095 
302 2 0.257853 23.7197 5.26043 3.93261 
435 2 0.266697 20.1177 5.13914 7.35776 
600 2 0.287643 24.6997 2.58977 21.9854 
627 2 0.288403 21.1829 4.25492 4.61396 
697 2 0.265197 23.3791 5.10431 6.6497 
763 1 -0.702287 21.7233 4.7477 2.24845 
770 1 -0.80375 22.1235 0.267843 6.57532 
812 1 -0.928055 18.822 5.15652 5.04412 
838 2 0.311134 21.0886 1.31867 4.48811 
843 2 0.28647 24.2997 29.6569 0.251145 
922 1 -0.599896 20.0927 6.08527 0.963867 
1012 2 0.331034 19.4378 3.54652 0.21981 
1042 2 0.263376 24.9907 0.108276 2.6629 
1099 2 0.283567 25.5556 3.05787 2.70808 
1197 2 0.282636 23.8925 29.9721 4.63915 
1238 2 0.320049 20.5744 2.22649 1.82686 
50 2 0.285927 28.1896 4.91811 6.02144 
80 2 0.251777 29.2479 29.825 6.2771 
129 1 -0.971043 25.622 4.05925 5.27289 
199 2 0.283703 27.2592 4.84067 0.893481 
296 2 0.294973 29.1701 3.04966 1.88539 
313 2 0.287992 29.6349 1.6225 4.02414 
332 2 0.268144 29.4162 5.08036 3.17414 
388 1 -0.958194 29.3792 0.389196 1.7118 
406 1 -0.931721 26.0597 5.34264 7.35385 
440 2 0.273437 31.3069 3.99001 4.10043 
508 2 0.270801 26.5794 1.39749 5.40952 
585 2 0.271889 30.9153 4.98849 6.84807 
664 2 0.262541 27.3457 2.05519 0.2059 
702 2 0.259761 29.4362 2.85026 6.35232 
1066 2 0.28323 0.967135 2.17787 3.01309 
1177 2 0.284668 30.2411 3.27434 21.5345 
1219 2 0.283401 31.5694 1.61792 1.33284 
1268 1 -0.969217 27.7245 3.3026 4.14262 
1284 1 -0.942905 27.3036 1.19497 2.85178 
2 2 0.272924 1.90238 9.88718 0.250296 
51 2 0.286743 5.39942 8.64277 4.42841 
55 2 0.324624 2.55322 7.15546 4.85952 
105 2 0.306664 3.53386 9.56263 5.53041 
266 1 -0.670604 5.12166 10.8412 2.8866 
343 2 0.296712 2.58455 11.8948 2.29089 
365 2 0.293119 2.4089 10.1774 3.49136 
385 1 -0.600597 0.791891 9.03475 5.45521 
568 2 0.282473 4.52603 12.1603 5.07207 
598 2 0.301869 1.03261 7.08025 0.690011 
806 1 -0.709119 0.782928 8.15473 3.09593 
856 2 0.280154 6.51096 7.09073 2.37404 
892 2 0.299356 31.2718 11.0255 3.8214 
905 2 0.259927 3.13242 7.82424 21.327 
987 2 0.284077 5.73916 14.6202 4.2488 
1016 2 0.293563 3.39072 7.52476 2.56377 
1019 2 0.276237 4.24423 5.19219 3.50579 
1252 2 0.308045 4.09851 8.84984 1.45906 
1278 1 -0.69654 6.26453 9.26557 0.157036 
1310 1 -0.736738 4.67861 11.2223 0.47776 
3 2 0.269896 11.785 7.61371 6.89059 
28 1 -0.741259 11.4336 10.5214 5.69603 
87 2 0.296564 8.19204 7.16732 5.43425 
192 2 0.29547 13.2795 8.60443 5.48437 
228 2 0.257468 13.9858 11.1906 6.05216 
416 2 0.275338 10.4499 7.17764 1.98471 
448 2 0.292765 7.41955 12.0354 3.87572 
549 2 0.31407 9.3423 10.5678 3.81219 
574 2 0.283866 8.94266 9.52663 0.673228 
1009 2 0.290995 6.94901 9.81163 5.06935 
1115 2 0.283557 8.58637 7.71623 3.36401 
1165 2 0.265958 10.8806 11.957 0.673675 
1171 2 0.241427 9.79276 10.8137 21.0836 
1172 2 0.309368 10.799 9.93404 2.48219 
1193 2 0.311312 7.2356 11.8199 1.16061 
1317 1 -0.82334 10.9554 8.34869 4.48643 
1318 1 -0.843518 7.16117 9.60504 2.40161 
1352 1 -0.76631 12.9649 8.3834 2.9652 
46 2 0.284748 16.9868 5.54378 3.35612 
99 2 0.280304 18.4511 9.85014 5.20103 
231 2 0.267243 19.3309 10.695 3.59011 
238 2 0.263285 15.1988 9.72416 3.71274 
270 1 -0.881525 12.8568 10.8237 3.65881 
337 2 0.262074 14.1345 12.9221 3.32719 
361 2 0.279615 17.6 6.08316 7.38756 
401 1 -0.800038 18.3029 11.0741 1.11802 
410 2 0.248096 17.216 8.71026 2.68762 
444 2 0.269728 14.7793 8.69057 0.781566 
560 2 0.263219 11.8873 9.04349 0.155507 
591 2 0.287428 16.2278 9.06132 6.53478 
902 2 0.272786 13.264 11.2596 1.15325 
937 1 -0.951289 17.7648 7.40005 5.13305 
1037 2 0.272618 13.1829 5.31868 6.10833 
1091 2 0.281792 16.4642 11.6505 3.25167 
1123 2 0.242667 15.1701 6.96501 5.07808 
1281 1 -0.993391 12.805 6.86026 0.890909 
1 2 0.24453 23.4199 8.32562 5.41937 
30 1 -0.889885 18.7393 8.28719 7.24631 
113 1 -0.972784 25.6843 9.83275 1.17107 
197 2 0.251694 21.5571 9.73147 3.82182 
380 1 -1.00037 24.2621 9.85318 3.2797 
409 2 0.276589 22.5085 11.4257 6.19548 
481 2 0.271739 24.7501 11.4176 5.37869 
488 2 0.305577 19.5329 7.10786 3.33311 
877 2 0.268153 20.5912 7.13248 5.65664 
881 2 0.262269 22.1136 7.29614 2.67554 
964 2 0.287191 21.0416 11.2303 1.39177 
968 2 0.251631 20.9978 9.57764 6.91426 
971 2 0.286943 24.3319 5.34943 1.10179 
1174 2 0.278821 19.7488 8.84321 1.26091 
1202 2 0.275437 23.1515 9.20341 0.886796 
1223 2 0.281037 25.0094 7.57834 2.54036 
49 2 0.257321 26.6 9.39417 4.25529 
234 2 0.274991 27.516 9.83353 6.91134 
239 2 0.306174 30.3126 6.62493 1.81374 
415 2 0.262053 28.3951 10.3516 1.72915 
451 2 0.318321 30.9219 6.76699 4.81162 
503 2 0.260875 26.6736 5.57552 3.29249 
506 2 0.284041 28.6776 10.8934 3.92491 
550 2 0.280358 31.398 9.8048 1.23232 
623 2 0.268956 28.2661 7.42467 4.46747 
640 2 0.267203 25.8997 11.8706 2.84031 
682 2 0.299092 27.7149 7.93731 1.78564 
746 1 -0.931577 29.3688 11.5879 6.28118 
761 1 -0.698688 29.9222 9.22446 5.662 
805 1 -0.681516 28.0022 6.86635 21.4389 
823 2 0.283495 0.480476 11.5034 6.62415 
938 1 -0.780766 25.6648 7.56529 0.0290121 
974 2 0.295291 30.5237 10.1429 8.07301 
999 2 0.250613 28.2713 7.32553 6.9972 
1156 2 0.29193 31.113 7.57721 7.43027 
1191 2 0.275061 25.7714 6.99119 5.4922 
1300 1 -0.865486 29.9662 8.73988 3.21462 
82 2 0.283953 5.57251 15.8507 6.82214 
109 2 0.273481 2.62924 13.3514 0.697143 
124 1 -0.836656 1.19936 14.7495 6.68823 
290 2 0.254523 2.11359 16.1247 1.44316 
470 2 0.287524 1.89737 12.6149 5.22911 
612 2 0.292808 1.95603 18.2428 1.84979 
759 1 -0.687229 3.40504 14.705 5.55017 
801 1 -0.905215 3.18465 14.2712 3.10899 
918 2 0.270863 6.97069 17.5547 1.95807 
948 1 -0.704744 1.08692 17.2652 6.8086 
1068 2 0.291393 3.90749 16.8097 3.58816 
1088 2 0.256346 31.2385 17.4399 2.72912 
1160 2 0.269663 4.80889 15.8526 1.42976 
1192 2 0.264419 0.295603 15.0282 -0.0130615 
1229 2 0.277733 31.2049 12.1374 1.0856 
1245 2 0.323179 1.24918 15.9093 4.43286 
1336 1 -0.826701 3.40396 17.1189 5.99088 
1344 1 -0.798445 5.24685 13.2119 2.13889 
222 2 0.278877 5.17346 18.9221 5.74829 
275 2 0.246506 12.8251 18.1726 3.66758 
280 2 0.304958 6.85439 13.0904 6.31116 
529 2 0.263372 6.44545 17.2944 4.26407 
530 2 0.269946 7.87515 18.9446 6.12765 
555 2 0.24916 12.0727 17.2289 1.39755 
666 2 0.251445 7.5878 14.8717 2.6288 
683 2 0.256707 9.14325 12.9599 1.37042 
912 2 0.281 9.26 14.0433 4.34774 
967 2 0.268657 8.44042 16.186 5.76692 
1081 2 0.281127 12.0229 13.1393 5.75657 
1114 2 0.268539 12.15 14.1125 8.33867 
1136 2 0.264278 9.98109 18.2739 8.04628 
1167 2 0.234076 8.45437 18.3099 21.2115 
1244 2 0.296296 10.1596 16.6 3.70921 
1283 1 -0.874927 10.015 14.3926 6.81484 
1301 1 -0.673989 9.43345 12.0886 6.0694 
1316 1 -1.01996 9.49995 17.7032 1.44429 
1321 1 -1.00441 10.3542 15.3026 1.56953 
101 2 0.222281 14.2614 16.3736 0.0671295 
126 1 -0.898328 18.5684 12.9738 2.7669 
269 1 -0.993676 16.5587 16.4436 4.06686 
340 2 0.246444 12.2786 15.2861 4.04203 
348 2 0.273878 11.0817 12.7391 3.34871 
354 2 0.271494 14.4429 15.9133 2.73124 
374 2 0.258592 19.0554 14.3541 7.0722 
446 2 0.283733 12.5285 14.222 1.05455 
468 2 0.271413 15.8019 11.2018 0.74401 
489 2 0.278536 16.5233 16.602 6.60037 
498 2 0.253039 15.1056 13.6781 0.646541 
753 1 -0.977393 16.3744 14.2191 2.93918 
768 1 -0.960128 14.3281 16.8678 5.17911 
888 2 0.308066 17.6898 13.7878 0.692366 
1073 2 0.255083 14.9083 14.3345 5.42375 
1127 2 0.275773 17.7933 14.0161 5.08728 
1169 2 0.252458 17.259 16.1951 1.38446 
44 2 0.278159 21.065 15.0674 4.9363 
132 1 -0.963306 21.7018 13.8248 7.10019 
141 2 0.254787 18.8707 16.8308 5.6075 
187 2 0.281011 26.5847 16.0902 5.34458 
438 2 0.295152 20.743 12.9455 4.47175 
525 2 0.239225 22.0572 16.1068 2.81447 
538 2 0.273823 21.0095 13.391 1.95779 
662 2 0.251247 25.77 14.3774 4.12089 
695 2 0.280934 23.1757 15.8752 6.44825 
699 2 0.232553 25.7848 14.3207 1.14552 
807 1 -0.999753 22.7696 16.8597 0.357764 
936 1 -0.981628 23.4121 13.6521 5.24508 
1002 2 0.275609 18.9267 15.4717 3.19552 
1196 2 0.254754 20.214 15.8532 0.596722 
1212 2 0.244131 24.0725 17.1126 4.59545 
1254 2 0.265045 23.5161 14.3192 2.82181 
1257 2 0.253853 25.2294 16.9003 2.16456 
1271 1 -0.94985 22.8621 11.9121 3.50517 
67 2 0.247741 25.0595 14.047 7.12476 
150 2 0.248257 27.18 12.5688 5.56266 
259 1 -0.976301 29.4042 13.7316 0.0810693 
400 1 -0.973307 27.5579 15.9737 2.90013 
645 2 0.252453 28.2623 17.767 6.94132 
680 2 0.264743 0.334196 14.128 2.78904 
686 2 0.281934 27.7294 15.6284 0.359297 
878 2 0.252796 30.29 18.3143 4.73758 
886 2 0.271986 30.4894 15.9101 6.69518 
953 2 0.261834 30.5932 13.5264 5.05292 
986 2 0.251171 28.0279 14.5347 6.86689 
1083 2 0.278015 28.617 13.4327 2.67268 
1090 2 0.284838 29.494 15.8524 4.38654 
1325 1 -0.962099 29.7879 15.5669 1.73881 
42 2 0.271647 2.07359 22.8519 3.61787 
253 1 -0.947071 1.62873 20.708 2.3033 
345 2 0.256653 3.53216 20.255 4.03494 
346 2 0.276631 1.83222 18.6893 4.56054 
399 1 -0.942732 5.52681 23.4827 6.32666 
402 1 -0.95473 31.1211 22.0508 2.52152 
460 2 0.233365 1.45847 21.4542 6.20079 
539 2 0.276318 3.77579 21.4333 0.884788 
628 2 0.27889 4.05966 21.5073 6.64745 
813 1 -0.990877 6.62011 21.1798 6.1505 
854 2 0.281239 2.80205 19.3112 7.29177 
889 2 0.290981 5.20869 22.0483 4.14388 
939 1 -0.93648 1.88181 19.9502 22.0528 
982 2 0.283412 1.33686 22.7273 0.69375 
1126 2 0.276885 2.49338 24.0516 6.36355 
1149 2 0.269015 4.75689 19.1145 2.24966 
1179 2 0.274704 4.2007 23.6361 2.00699 
1286 1 -0.968092 6.69327 20.0285 3.8782 
115 1 -0.994175 8.72257 18.5486 3.73157 
177 2 0.270582 11.8223 22.0374 2.4617 
196 2 0.275534 9.43985 24.4067 4.21572 
308 2 0.283326 6.00529 22.0525 20.7225 
505 2 0.245616 10.8624 19.7179 2.866 
547 2 0.251205 9.04988 20.9962 7.24792 
569 2 0.266167 8.7119 21.5459 4.19793 
704 2 0.269593 11.5143 22.016 5.57045 
757 1 -0.956527 11.9268 24.2232 3.79996 
784 1 -0.767509 5.85729 24.2211 0.101422 
908 2 0.271258 8.1171 23.4397 6.33398 
1038 2 0.258485 10.4865 19.3633 5.47883 
1040 2 0.277815 10.1301 22.7857 8.39129 
1095 2 0.258063 6.65474 22.0591 1.63323 
1237 2 0.234288 9.61773 22.5911 1.30708 
131 1 -0.764617 18.7197 21.4639 5.52815 
143 2 0.24102 18.5759 23.0137 0.362889 
273 2 0.25672 18.0443 18.6582 3.27351 
367 2 0.291243 16.3897 22.61 4.70893 
377 1 -0.694658 14.5399 18.4985 7.11621 
515 2 0.287077 16.0735 20.7203 6.19906 
581 2 0.293227 14.0695 22.9108 4.19268 
610 2 0.273547 14.4542 23.4861 6.71914 
636 2 0.264283 13.7167 20.5423 4.1431 
786 1 -0.956221 13.5465 24.1381 1.87101 
848 2 0.325915 12.3159 18.747 6.00334 
896 2 0.246027 15.5307 18.224 1.96821 
996 2 0.291957 15.855 18.8304 4.82551 
1001 2 0.263616 17.933 18.0752 22.12 
1059 2 0.254373 16.3689 23.5166 2.23711 
1108 2 0.245515 16.2622 20.7204 3.00597 
1262 2 0.267075 13.56 19.4524 1.18742 
1315 1 -0.961878 14.3062 21.7867 1.61516 
106 2 0.287469 20.3922 18.6721 8.03939 
215 2 0.275682 23.9287 22.4468 21.8603 
362 2 0.267426 23.8464 23.1396 4.21329 
376 2 0.284214 22.8814 18.7452 2.14602 
437 2 0.26223 23.491 21.5298 2.26852 
484 2 0.306482 21.0829 22.4391 4.29498 
520 2 0.252475 21.389 22.9742 1.66303 
583 2 0.288885 18.8158 21.6515 2.92939 
644 2 0.272783 23.3062 20.2087 4.71018 
649 2 0.265907 18.8276 20.1156 0.761252 
667 2 0.290761 23.35 22.425 6.86368 
681 2 0.281334 20.0575 17.9392 2.71488 
779 1 -0.945116 20.9899 20.4333 1.95159 
875 2 0.285748 26.5537 24.5604 2.79082 
921 1 -0.980153 20.8194 18.4652 0.352217 
1069 2 0.26166 21.4905 17.9612 5.41174 
1118 2 0.309294 21.2001 20.9276 6.46833 
1309 1 -0.907884 20.2842 19.9088 4.27346 
236 2 0.266272 26.2622 21.875 1.88084 
237 2 0.231519 30.0303 21.4272 6.32059 
256 1 -0.986304 26.2556 23.8249 0.286773 
261 1 -0.965014 25.3887 20.8863 6.44253 
344 2 0.246383 30.6725 22.3346 21.7594 
357 2 0.254218 28.7617 23.1275 1.30118 
379 1 -0.971239 25.8653 18.4914 5.8896 
463 2 0.264919 28.4068 23.4895 6.36711 
516 2 0.24975 28.8598 20.5025 3.12908 
546 2 0.237952 25.2064 19.6699 0.5811 
575 2 0.244376 26.1584 22.3479 4.56651 
606 2 0.278419 31.5807 20.3324 4.26387 
607 2 0.26264 28.219 20.357 0.194928 
869 2 0.274767 28.3417 18.0892 1.76132 
915 2 0.282238 31.0473 24.5093 2.54774 
985 2 0.281721 31.0653 19.8999 1.07219 
1130 2 0.269706 25.7909 19.5246 3.4672 
1207 2 0.271245 30.7603 18.9814 7.23832 
1266 1 -0.967096 27.7598 18.0989 4.26974 
1267 1 -0.997475 31.3538 23.0204 4.80817 
21 2 0.296377 1.65828 28.4231 8.49401 
64 2 0.286381 1.79377 25.4376 1.70164 
189 2 0.272579 1.41802 26.7853 6.61812 
227 2 0.293323 31.5769 29.1668 0.978872 
277 2 0.264211 3.78419 26.8266 5.40742 
306 2 0.259585 1.12441 25.435 4.36724 
570 2 0.30681 3.16887 28.8678 6.49198 
616 2 0.300201 2.38053 29.507 2.28823 
729 1 -0.706961 3.70832 27.0739 2.65009 
735 1 -1.00627 4.26646 29.1079 4.11651 
737 1 -0.673452 3.07249 27.6979 0.299916 
799 1 -0.753624 5.84375 25.866 2.10544 
992 2 0.256825 6.1928 28.7211 6.11564 
1034 2 0.293538 4.70188 29.2589 21.0669 
1093 2 0.298255 1.67371 28.1592 4.10975 
1102 2 0.271998 4.25417 24.8579 4.24783 
1221 2 0.281735 4.78365 25.8971 7.13742 
17 2 0.272153 11.5608 27.7321 6.70383 
25 2 0.262518 7.22879 28.1024 1.25158 
90 2 0.270295 6.79072 24.0891 3.86233 
295 2 0.273117 11.086 25.2314 1.63357 
571 2 0.252976 8.75984 26.4288 2.95321 
660 2 0.263731 13.2007 28.374 4.85997 
679 2 0.275928 9.9711 27.6979 0.470442 
711 2 0.299273 5.14544 29.0596 1.63338 
721 1 -0.97555 9.47648 26.4582 6.24111 
739 1 -0.993661 8.79354 28.8262 6.73214 
988 2 0.280424 13.2248 26.4601 2.95406 
1051 2 0.286985 8.10868 24.8929 1.3545 
1074 2 0.280366 6.16753 27.3406 4.06193 
1077 2 0.272549 11.0808 24.4966 6.37007 
1135 2 0.270444 7.03161 25.8654 6.14682 
1154 2 0.273697 8.79666 28.0403 4.36528 
1180 2 0.254879 10.7221 29.2056 4.74593 
1274 1 -0.987428 11.0705 26.5344 4.29918 
12 2 0.245652 19.4911 24.6187 2.55042 
154 2 0.322752 17.55 27.3297 7.11378 
466 2 0.3145 20.0393 27.361 2.67831 
519 2 0.329734 17.4199 0.228127 4.5146 
611 2 0.281667 15.8755 28.9128 -0.00660109 
671 2 0.30128 18.0015 27.8612 4.96311 
703 2 0.308502 15.6968 28.2028 4.49308 
795 1 -0.906712 15.7583 29.0989 6.97769 
945 1 -0.761172 17.5633 28.5657 2.413 
970 2 0.270669 15.0629 25.4308 3.70717 
984 2 0.288203 17.092 26.1424 1.53682 
1129 2 0.291073 17.5637 26.0818 3.9053 
1134 2 0.307956 14.8904 26.6093 6.60155 
1150 2 0.267154 15.2927 25.8071 0.36523 
1210 2 0.266359 13.1521 25.5023 5.70578 
1218 2 0.26581 14.6664 28.2012 2.06283 
1239 2 0.327924 19.5818 29.2622 6.1286 
1288 1 -0.949853 18.3016 27.7908 0.0837134 
1308 1 -0.757411 18.6667 23.8951 4.90779 
1330 1 -0.864233 16.5551 24.8689 5.87223 
116 1 -0.794378 19.6418 29.6542 3.40491 
289 2 0.271591 23.6407 27.1164 5.75742 
419 2 0.314522 22.0473 29.7651 2.28869 
464 2 0.295436 22.2217 25.5493 2.7744 
723 1 -0.969111 24.2135 24.121 1.75305 
969 2 0.25777 22.5905 27.5352 0.816648 
1029 2 0.261838 21.8547 24.7172 5.4798 
1031 2 0.294474 20.1262 29.4391 0.735845 
1089 2 0.281856 20.2289 26.2778 5.15496 
1285 1 -0.913782 23.4449 27.8219 3.35266 
1296 1 -0.736774 21.501 28.53 4.80311 
1304 1 -1.00091 24.455 25.568 3.83987 
89 2 0.279379 28.4251 28.9696 3.63434 
205 2 0.274473 26.8021 0.0176751 8.31881 
217 2 0.294862 0.631448 27.3059 1.53252 
244 2 0.242523 26.1714 25.1154 5.70962 
246 2 0.264771 26.0653 27.5807 3.29363 
389 1 -0.946718 29.3356 25.6784 7.35554 
424 2 0.272008 30.4426 25.5135 0.315048 
429 2 0.279993 31.2996 29.8356 3.82399 
483 2 0.294325 30.674 27.4764 5.79775 
528 2 0.286546 25.0556 26.7801 1.50425 
604 2 0.258563 28.515 26.0201 2.77265 
663 2 0.263247 30.589 27.2249 3.27634 
687 2 0.238814 24.0202 24.7995 7.35857 
1119 2 0.285403 27.9829 26.5994 5.37022 
1217 2 0.274187 28.8819 23.0769 3.91716 
1231 2 0.234815 26.2777 28.6418 5.67135 
1290 1 -0.948842 30.0497 25.1495 4.98069 
1306 1 -0.952524 29.3219 27.9811 1.0792 
58 2 0.302382 4.16995 6.13317 6.95855 
133 1 -0.759969 5.80618 5.28153 13.9385 
134 1 -0.756262 3.45083 4.41624 13.336 
247 2 0.257639 5.61912 5.58454 9.15529 
255 1 -0.778517 2.22068 1.17658 7.29393 
305 2 0.243218 6.40186 2.95885 7.88237 
392 1 -0.950502 1.08861 3.37922 7.78582 
411 2 0.26969 3.14571 4.42919 10.6441 
436 2 0.28907 4.37197 1.86679 10.4084 
712 2 0.273498 0.725045 3.86927 12.6848 
1017 2 0.246953 4.54088 0.15551 13.2097 
1025 2 0.266349 31.4141 0.569729 11.2412 
1057 2 0.280225 0.363181 5.54115 9.98671 
1084 2 0.28688 0.89484 2.72922 10.2334 
1230 2 0.275418 2.69342 2.00807 12.4795 
1314 1 -0.772766 5.41931 3.89256 11.8061 
5 2 0.226193 8.88177 4.64497 9.56218 
19 2 0.270416 7.60311 29.1546 11.5244 
322 2 0.241931 9.79167 2.24669 8.16716 
432 2 0.277966 7.10737 3.16996 10.0303 
540 2 0.266914 9.02916 1.66644 10.7417 
563 2 0.261902 9.99304 4.48898 12.4232 
567 2 0.262142 10.4488 4.93118 7.4733 
643 2 0.258469 12.3464 1.45137 9.67648 
754 1 -0.954004 6.37912 1.5499 11.9646 
774 1 -1.01242 6.58755 5.29307 6.5792 
868 2 0.274934 10.0552 6.97041 13.0636 
911 2 0.257737 6.85055 29.789 14.0009 
976 2 0.305179 5.29795 2.58645 14.1443 
997 2 0.279533 11.5869 3.73834 10.1412 
1006 2 0.290233 11.0528 1.65848 12.2525 
1011 2 0.251732 9.68843 30.0174 14.0988 
1124 2 0.283607 8.38964 1.93378 13.3905 
1162 2 0.286524 7.86706 4.28838 12.642 
1291 1 -0.986592 8.87962 29.6792 9.10913 
1340 1 -0.922478 12.2462 29.4149 11.8289 
20 2 0.262477 14.1841 5.31385 14.0389 
144 2 0.263063 17.6051 3.61216 8.34804 
152 2 0.290847 19.3432 0.38843 13.8867 
315 2 0.271135 14.6432 4.02531 8.4936 
331 2 0.286369 16.1571 1.70863 7.05106 
371 2 0.31705 14.4498 0.165093 10.7641 
532 2 0.237304 15.7058 2.3067 10.0599 
713 2 0.261135 16.5407 5.40916 10.3825 
731 1 -0.802822 13.4306 1.17372 13.1675 
791 1 -1.01456 18.0672 3.19279 10.9075 
817 2 0.285611 17.9189 1.09301 9.40966 
845 2 0.276279 12.1371 3.93045 13.2915 
959 2 0.278108 15.8732 0.731687 13.9297 
995 2 0.263012 16.0265 3.5839 12.754 
1004 2 0.24721 13.9455 3.02327 11.5024 
1028 2 0.278696 14.1934 2.81105 15.0919 
1157 2 0.270669 17.0441 0.740902 11.9684 
1225 2 0.289838 14.2726 1.10078 7.95975 
1298 1 -1.00995 18.2336 5.16366 12.4603 
1302 1 -1.02943 12.5588 5.69806 8.70545 
60 2 0.275552 20.706 5.04723 13.3175 
164 1 -0.863435 23.3058 4.21236 13.5597 
226 2 0.263354 22.1044 0.585936 11.6107 
364 2 0.285639 19.9859 0.957877 10.8985 
443 2 0.28317 24.7442 5.11356 9.51423 
479 2 0.273737 21.5952 2.8486 6.91723 
561 2 0.255787 25.1184 2.84288 7.8234 
658 2 0.259677 18.5792 2.72196 13.5774 
865 2 0.289668 23.6991 1.77453 14.6579 
885 2 0.281215 19.3645 5.43087 10.136 
906 2 0.281376 20.6836 3.44677 11.6734 
1036 2 0.288844 22.5076 2.09262 9.06803 
1143 2 0.293066 23.5356 2.75927 11.5308 
1164 2 0.280427 21.5932 29.8603 15.8051 
1248 2 0.260714 21.4728 2.30039 14.0791 
1313 1 -0.973414 19.9699 3.12081 9.22178 
1326 1 -0.966874 25.0604 0.724595 12.4271 
1358 1 -0.786651 20.126 0.878551 8.11906 
71 2 0.27054 25.1789 5.18103 11.9362 
88 2 0.257785 27.8731 4.10326 12.9946 
120 1 -0.848387 0.415691 1.16994 13.6737 
210 2 0.276959 27.8339 4.38487 8.98755 
264 1 -0.947617 25.5036 3.00412 13.3632 
326 2 0.284282 27.4046 1.05645 13.1896 
491 2 0.24243 28.0587 2.094 7.98015 
526 2 0.299491 31.243 0.976445 8.27014 
587 2 0.271182 29.9164 2.21353 12.4141 
675 2 0.280782 29.5447 5.97164 8.92238 
688 2 0.261957 24.3804 29.9991 7.50693 
717 2 0.281449 28.9401 2.08482 10.4979 
726 1 -0.95954 26.9817 0.15893 10.8722 
764 1 -0.952248 30.3841 3.43812 8.82655 
872 2 0.282862 30.3341 5.47224 13.3892 
1092 2 0.284232 26.2662 2.67875 10.7463 
1345 1 -0.955424 30.0586 4.51489 11.0983 
22 2 0.263203 4.85119 8.61556 12.525 
78 2 0.292599 6.19362 8.38674 9.58033 
97 2 0.280076 1.54232 10.4626 10.0306 
229 2 0.269172 2.22946 6.47971 12.1356 
336 2 0.260942 30.7257 11.4599 10.1404 
339 2 0.272358 5.92766 12.6405 13.979 
360 2 0.295254 5.24282 6.50859 11.68 
382 1 -0.968673 4.03935 9.71086 10.252 
383 1 -0.864777 1.98651 7.66368 7.2302 
403 1 -0.703278 4.11842 8.78249 7.90611 
445 2 0.280072 1.51765 5.44369 14.8796 
453 2 0.24714 0.321899 8.18973 9.82091 
493 2 0.263075 5.56047 11.1903 11.9053 
696 2 0.29797 6.40017 10.3987 7.07957 
725 1 -0.779435 3.78407 6.79313 14.2025 
839 2 0.300685 1.76642 10.05 7.88078 
880 2 0.219331 3.75065 10.6138 14.7622 
919 2 0.252829 2.27782 9.63904 12.0941 
1021 2 0.284816 3.0596 7.43063 9.85281 
1163 2 0.279582 2.51204 8.83778 14.7492 
1319 1 -0.925441 6.24442 7.76414 7.01623 
41 2 0.266622 8.27543 6.76164 7.96276 
72 2 0.296267 10.7145 12.238 8.27878 
110 2 0.257666 12.2036 9.79988 14.7136 
281 2 0.280242 8.6518 9.75811 9.13219 
320 2 0.252298 8.25578 6.77794 10.8574 
425 2 0.254674 7.47498 7.29626 13.6306 
439 2 0.262838 10.5061 12.3492 13.2993 
442 2 0.252121 6.10065 9.6798 14.7762 
689 2 0.309527 9.21151 9.39294 6.43354 
743 1 -1.01205 9.97721 9.52061 13.3368 
777 1 -1.0105 10.3463 8.59007 10.9915 
864 2 0.251195 11.4127 10.1923 8.28679 
1003 2 0.260862 10.3634 11.1386 11.043 
1106 2 0.275838 10.3697 7.49815 8.59831 
1111 2 0.284927 7.82722 9.34354 11.8647 
1200 2 0.254468 12.1102 7.12942 12.8668 
1329 1 -0.845917 8.1678 12.1715 8.25667 
1342 1 -1.02065 11.0072 6.15554 10.6778 
1347 1 -1.01245 8.08922 11.2195 13.5732 
135 1 -1.01229 15.6669 10.6745 8.8105 
225 2 0.25011 18.0589 7.73317 11.5811 
250 1 -1.01948 16.0758 6.41056 12.8634 
431 2 0.247383 16.551 11.9207 6.02984 
454 2 0.251395 13.2266 11.3888 9.74818 
482 2 0.248468 12.3963 9.94445 12.2027 
509 2 0.272711 15.1305 10.4568 11.439 
565 2 0.232448 13.9089 9.08534 8.07688 
594 2 0.229712 14.9086 6.68761 8.04813 
647 2 0.255231 13.7467 5.58529 11.1238 
849 2 0.267767 17.0626 8.94624 13.0066 
927 1 -0.917936 17.9506 10.5609 7.7994 
954 2 0.274587 17.0787 8.47215 9.246 
1153 2 0.26109 12.6822 8.10859 10.0714 
1182 2 0.224814 15.0937 8.02914 10.809 
1227 2 0.265995 19.007 10.3379 13.9374 
1228 2 0.278964 14.4458 8.31834 13.3908 
1338 1 -0.728516 15.7672 12.7924 10.1572 
77 2 0.258194 20.2089 7.12453 12.3262 
91 2 0.238749 25.1862 9.69421 7.28725 
114 1 -0.96389 24.4248 7.21714 7.6633 
230 2 0.26992 17.7544 10.8905 10.6882 
233 2 0.267425 19.9852 7.35993 9.29804 
381 1 -0.918883 24.2002 7.61686 10.1136 
562 2 0.285007 22.0488 7.21428 8.36552 
572 2 0.280937 21.7531 8.73944 14.5948 
577 2 0.282149 19.9845 12.4064 11.7598 
578 2 0.275792 22.4899 5.85393 11.1796 
765 1 -0.924446 21.9419 8.41661 10.7698 
900 2 0.298298 23.5538 9.62385 12.3994 
901 2 0.291963 19.9567 9.7166 9.43227 
1054 2 0.260316 24.8631 8.1307 15.1403 
1078 2 0.246997 22.1656 4.6213 9.33673 
1110 2 0.294806 23.1322 9.64832 8.88789 
1148 2 0.282181 20.222 9.64602 12.2413 
1159 2 0.285255 22.9094 6.89247 13.2204 
1270 1 -0.934973 21.8073 11.3998 13.3946 
1282 1 -0.932532 21.9891 10.9253 10.9322 
146 2 0.273911 27.8837 8.64637 11.879 
172 2 0.244042 25.8348 9.8123 10.0694 
262 1 -0.956942 28.3939 11.6213 8.58657 
263 1 -1.01576 29.9283 7.06092 11.244 
314 2 0.26225 0.484229 7.5496 12.6362 
342 2 0.283214 26.5742 7.27755 9.10366 
465 2 0.273119 30.37 9.65909 11.9136 
542 2 0.263143 0.579345 10.7497 13.3498 
656 2 0.273751 27.9924 11.7967 11.1044 
827 2 0.296625 30.3425 13.3805 7.89492 
931 1 -0.992661 29.6347 7.83988 13.6617 
947 1 -0.960725 28.5685 10.1018 14.005 
1020 2 0.265946 26.1632 10.1969 13.1952 
1103 2 0.247679 25.4242 7.48495 12.2843 
1122 2 0.267897 27.7168 5.76173 11.1797 
1138 2 0.247592 28.8443 8.96543 9.46101 
1198 2 0.276966 27.5048 12.3207 14.7266 
1203 2 0.267902 0.352077 7.61832 15.1783 
159 2 0.279056 3.76632 11.4684 7.8868 
188 2 0.283312 1.44785 13.0455 8.76559 
294 2 0.344752 2.82987 15.9927 8.2885 
330 2 0.303252 2.78748 14.5358 10.4673 
407 1 -0.81466 2.35501 17.0679 10.9426 
420 2 0.277312 3.24525 12.2289 13.025 
474 2 0.313429 0.732742 15.7207 9.11032 
544 2 0.251662 6.93394 14.2966 12.003 
619 2 0.285788 3.50545 13.9497 15.2127 
639 2 0.313052 5.36147 15.775 9.89565 
673 2 0.283544 5.92868 13.4404 9.44725 
705 2 0.314154 1.58665 14.9707 12.1724 
741 1 -0.987274 3.48722 12.1338 10.4999 
747 1 -0.983523 1.14243 13.228 13.9834 
835 2 0.278471 4.0273 13.6933 7.86247 
998 2 0.292887 6.02149 11.1184 9.36805 
1013 2 0.288076 2.68318 15.9742 13.8049 
1045 2 0.259946 4.54848 14.5087 12.1843 
1277 1 -0.990262 1.1892 12.4993 11.5408 
1341 1 -0.612808 4.68537 17.2974 12.0037 
86 2 0.278126 7.21253 17.246 8.11326 
163 1 -0.714198 7.89953 14.6616 8.09788 
447 2 0.280723 9.76743 16.6887 14.2522 
510 2 0.291572 9.54897 13.7286 9.85002 
632 2 0.259485 8.10577 12.2541 11.1409 
638 2 0.27571 8.28715 13.7471 14.4032 
654 2 0.260702 9.62704 15.0057 12.256 
694 2 0.291937 10.1406 16.1853 8.74051 
706 2 0.27917 11.4824 16.4475 6.2416 
755 1 -0.959822 11.7992 14.9317 13.6776 
893 2 0.263684 9.38847 17.7347 11.3177 
941 1 -0.957061 8.06589 15.8698 10.3015 
950 1 -0.713049 6.5843 17.9151 10.5325 
1048 2 0.307231 7.14238 16.7244 12.852 
1071 2 0.27889 11.6408 14.3555 11.1665 
33 1 -0.736558 14.0094 15.0032 12.5048 
47 2 0.25725 17.2325 17.282 11.5239 
111 2 0.266045 13.9707 17.1914 10.9748 
127 1 -0.833983 12.5099 18.2269 8.52659 
521 2 0.252915 15.9833 14.668 8.1108 
554 2 0.302525 13.4416 15.9566 7.53158 
794 1 -0.89524 14.0488 14.5803 10.0141 
879 2 0.24479 16.3333 16.3285 13.8164 
899 2 0.303845 16.3212 14.9579 11.397 
914 2 0.239177 18.3622 14.0468 10.4086 
944 1 -0.833441 15.1564 12.7953 12.5361 
958 2 0.274125 15.2259 17.0445 9.3102 
962 2 0.275016 18.4124 15.0246 13.6155 
979 2 0.270935 17.7481 12.5913 13.2942 
1010 2 0.271581 11.95 16.3497 10.252 
1125 2 0.273217 17.6489 12.9289 8.36897 
1201 2 0.299426 12.8615 12.788 11.3935 
1247 2 0.273815 13.8348 16.9901 14.2897 
1260 2 0.265127 14.1486 12.6606 7.96003 
23 2 0.276852 24.7567 14.9014 12.8602 
149 2 0.269114 20.6948 15.84 15.0909 
161 2 0.263438 19.7512 11.962 6.43557 
191 2 0.262218 22.7856 17.0338 8.79046 
254 1 -1.00895 25.0473 17.2586 13.9384 
271 1 -0.977065 20.8404 13.693 13.7908 
278 2 0.271188 18.2384 16.432 8.82594 
512 2 0.269319 24.0847 16.3528 10.9987 
708 2 0.284336 20.9458 14.3744 9.40989 
788 1 -0.997206 20.7659 16.1628 7.46638 
800 1 -1.00272 20.4737 16.8332 9.90527 
841 2 0.249523 21.7283 15.3019 11.7914 
903 2 0.273437 20.0482 17.715 12.3012 
916 2 0.260282 24.4162 12.3077 13.9092 
920 2 0.239645 23.0732 15.2872 14.5941 
989 2 0.254377 24.7413 12.0823 11.052 
1008 2 0.262842 22.5872 17.3241 13.0076 
1035 2 0.284507 22.619 13.2749 11.8353 
1112 2 0.266835 20.4142 11.9258 8.92842 
1144 2 0.253479 23.7809 14.4932 9.3653 
1183 2 0.260039 23.0655 12.0577 8.62613 
1188 2 0.249675 19.543 15.4098 12.0291 
1211 2 0.24382 25.7345 14.84 15.6271 
160 2 0.239552 25.3511 16.8422 7.80274 
235 2 0.272054 29.7481 17.1863 14.4482 
412 2 0.255603 29.6468 16.3225 9.1213 
462 2 0.2524 27.1634 15.8963 14.1982 
511 2 0.27321 28.3851 14.9931 11.736 
718 2 0.247397 27.9912 18.2015 10.1497 
787 1 -1.03665 26.3688 16.8293 11.7858 
790 1 -0.967336 0.0882186 15.4768 14.4607 
822 2 0.2795 31.0031 14.4814 12.3002 
859 2 0.245644 26.8971 13.2256 12.9037 
929 1 -0.984049 26.0932 14.4823 10.7773 
960 2 0.275818 26.7217 16.1518 9.11332 
1121 2 0.231976 29.14 17.0334 12.1128 
1189 2 0.265887 30.6539 13.822 10.3179 
1190 2 0.271776 26.0667 12.5017 8.59594 
1259 2 0.259312 29.9686 12.2328 13.0963 
1354 1 -0.97405 28.1433 13.9904 9.3838 
36 2 0.330948 2.5605 18.8821 12.8315 
53 2 0.331827 4.96716 20.3016 11.7127 
75 2 0.32586 3.81654 18.986 10.2621 
76 2 0.266976 2.77401 22.0256 11.6194 
148 2 0.293294 31.4153 17.0406 11.0063 
182 2 0.276716 3.59799 21.2413 9.31681 
396 1 -0.674169 3.62879 20.8226 14.1243 
500 2 0.23578 1.68458 24.3938 12.8859 
524 2 0.277023 0.486849 21.4821 13.3011 
535 2 0.293192 6.74247 22.3909 8.51415 
798 1 -1.08331 5.16915 23.0545 10.4655 
904 2 0.314629 4.0565 17.5115 8.78958 