ITEM: TIMESTEP
231
ITEM: NUMBER OF ATOMS
1368
ITEM: BOX BOUNDS pp pp pp
0.0000000000000000e+00 3.1698145000000000e+01
0.0000000000000000e+00 3.1698145000000000e+01
0.0000000000000000e+00 2.1132097000000002e+01
ITEM: ATOMS id type q x y z 
38 2 0.27578 1.62449 3.79202 3.71894 
58 2 0.256028 2.7194 5.40267 6.77075 
265 2 0.272551 5.50526 0.570256 3.58114 
321 2 0.257639 1.5384 1.49013 4.92299 
332 2 0.260868 4.19612 5.15401 3.81569 
357 1 -0.993187 6.04618 3.16219 4.3278 
563 2 0.242597 4.06792 30.0201 2.3458 
665 1 -0.991936 3.77808 2.48886 3.40983 
709 2 0.225725 4.91646 4.73191 20.5149 
738 2 0.252206 0.699231 4.04825 5.86523 
741 2 0.257849 4.24892 7.94621 4.38464 
742 2 0.269122 5.55965 3.516 1.80223 
810 2 0.238581 31.3087 1.88864 2.42076 
850 2 0.229806 4.47046 1.22979 1.1682 
872 2 0.225505 1.7015 1.44329 20.8948 
884 1 -1.01851 3.03961 4.02973 1.54811 
926 2 0.256166 3.93442 0.186217 5.17988 
943 2 0.260409 3.92921 3.25737 5.82468 
1130 2 0.254429 2.02365 0.774159 2.50185 
1170 2 0.240215 0.274353 1.55596 7.48966 
1331 1 -1.00764 0.956556 5.46311 1.9533 
172 2 0.229678 10.4677 3.96017 3.7548 
186 2 0.268802 13.3433 3.07115 6.80556 
268 2 0.246931 6.95903 0.538478 0.365034 
299 2 0.242804 8.83574 3.7581 1.11518 
338 2 0.256019 11.5517 2.18477 1.45484 
392 2 0.258553 7.42567 1.63809 2.40533 
432 2 0.260734 12.6692 6.10971 20.787 
433 2 0.276097 10.7088 5.29557 1.3467 
443 2 0.224635 8.10433 5.17231 20.5016 
530 2 0.237663 6.08897 5.64045 5.54581 
546 2 0.282274 12.8098 4.64881 4.02353 
599 2 0.264324 9.35156 1.75879 3.11982 
646 1 -0.986384 7.53734 1.22606 4.9868 
750 1 -1.00266 9.85144 1.99984 5.63086 
843 2 0.254615 12.1714 2.00178 4.60459 
862 2 0.27404 8.56721 0.425543 7.24139 
975 2 0.26465 8.142 3.78386 5.73348 
991 2 0.273539 9.40566 31.1421 4.70983 
1303 2 0.252345 7.72393 4.60338 3.02088 
1308 1 -0.972283 11.2039 31.7006 6.34818 
31 2 0.266392 17.8457 4.03473 0.694998 
113 2 0.198614 16.1269 2.50257 1.66801 
141 2 0.250361 17.4871 0.664448 3.93042 
208 1 -0.966696 18.7876 4.59231 6.94712 
445 2 0.283926 16.6947 6.39414 5.6182 
460 2 0.281212 19.2654 5.26646 4.63773 
525 2 0.269848 20.9241 1.6942 20.2768 
615 2 0.25053 15.154 2.36561 4.2262 
686 2 0.271147 17.6632 31.2721 7.5149 
715 2 0.265533 16.254 5.07101 3.04231 
854 2 0.285677 19.1142 2.15325 6.35171 
942 2 0.271132 16.2907 1.79449 6.49538 
1034 1 -0.978274 14.4134 6.75785 4.11056 
1110 2 0.268825 14.344 0.500438 2.77763 
1240 2 0.217591 13.5295 3.85004 1.76641 
1252 2 0.288037 13.6453 0.309891 5.77218 
1326 1 -0.932294 14.9224 4.60065 5.29991 
1366 1 -0.979787 17.2913 3.77357 5.07697 
23 2 0.283393 25.6523 2.26425 4.39844 
72 1 -0.977985 21.1014 3.94092 6.19895 
89 2 0.249102 25.0223 4.35773 0.240142 
90 2 0.232939 23.8365 4.01675 5.20773 
100 2 0.262091 22.0553 5.45433 0.762886 
130 2 0.247971 21.3128 4.43966 3.58148 
135 2 0.255679 22.5848 1.92855 4.9494 
256 2 0.299172 25.784 7.17575 4.14388 
521 2 0.239069 21.2127 31.3325 6.33058 
671 1 -1.01537 24.4084 2.81059 2.30108 
974 2 0.244812 18.7284 3.11872 3.01519 
985 2 0.238638 19.4428 1.22667 1.59267 
987 2 0.279715 21.9208 2.57117 2.57876 
1032 2 0.244478 20.0648 1.90283 4.7215 
1133 2 0.27653 24.2685 1.3428 6.96563 
1196 2 0.220571 22.332 0.460305 1.16898 
1217 2 0.26762 21.3681 6.92083 3.07749 
1218 2 0.245204 23.9544 5.36934 2.56772 
1296 2 0.269735 19.6753 5.98062 20.5849 
1354 1 -0.968763 21.8554 1.89175 7.42881 
343 2 0.269828 30.48 6.28969 5.21243 
358 1 -1.00108 28.5918 6.2556 0.542155 
402 2 0.250102 26.9031 2.62919 6.64264 
579 2 0.253355 28.3246 3.00739 2.46987 
597 2 0.25659 28.6689 3.85575 5.26979 
605 2 0.255598 28.4357 5.9522 3.063 
627 1 -1.01962 26.3994 1.2153 2.17221 
666 1 -0.965354 27.9342 1.24403 4.23235 
705 2 0.289681 30.5608 1.63661 4.365 
710 2 0.270213 29.4476 0.943641 6.45951 
800 2 0.290409 28.8317 0.219222 2.03511 
809 2 0.235306 26.2307 4.74254 4.08211 
919 2 0.248324 26.695 4.04228 1.38477 
1019 2 0.238551 30.672 4.47386 3.22966 
1049 1 -0.971213 27.8627 6.49855 5.61182 
1155 2 0.249394 26.4517 4.78525 6.91815 
1229 2 0.229261 29.6401 3.07914 0.488676 
1241 2 0.264913 0.712842 3.17391 0.801707 
1322 1 -0.787985 30.9665 5.394 0.0416162 
21 2 0.253795 2.15189 9.46207 0.454936 
376 1 -0.961526 2.45934 9.47691 5.38038 
487 2 0.248557 3.25546 6.63742 1.58944 
782 2 0.269907 4.13382 7.65583 6.83074 
822 2 0.246168 1.53595 6.66879 4.26085 
866 2 0.255975 3.7105 12.4453 6.12681 
910 1 -0.939202 1.48727 11.3674 4.06989 
914 2 0.249487 1.62845 12.0312 1.36001 
921 2 0.269273 3.961 10.9683 3.64513 
934 2 0.273778 4.40599 11.3299 0.431902 
1065 2 0.233504 4.91234 8.95247 1.59797 
1123 2 0.248841 6.224 10.0404 4.07607 
1291 2 0.25271 1.93758 9.07645 2.80455 
1343 1 -0.944485 4.73213 10.1254 6.20153 
1368 1 -1.26127 6.43739 9.91553 20.9185 
68 1 -1.22494 8.57419 6.59606 1.44794 
106 2 0.249974 10.0215 11.0174 6.29639 
151 2 0.25991 9.3954 6.27323 4.02335 
155 2 0.267358 6.99565 11.2815 6.28135 
206 1 -0.97652 6.53308 8.36352 6.18911 
489 2 0.2333 10.3004 10.3812 1.23564 
644 1 -0.999243 10.5452 7.87597 2.40975 
811 2 0.253364 13.7852 9.06575 3.29473 
940 2 0.270087 11.0005 12.2612 3.18966 
1015 2 0.230787 8.71427 11.425 3.84064 
1093 2 0.219303 6.059 6.20657 1.55231 
1105 2 0.239834 6.85215 7.27385 3.7628 
1129 2 0.228177 8.03976 7.93307 20.3705 
1221 2 0.2784 11.8104 7.19763 4.61239 
1223 2 0.225078 11.416 9.92637 3.70871 
1256 2 0.253161 8.06671 8.97727 1.91354 
1278 2 0.230309 7.14518 11.56 1.79966 
1290 2 0.257915 8.92775 8.84844 4.92324 
41 2 0.270782 12.7808 8.73986 1.02614 
53 2 0.244953 17.441 7.21756 0.197792 
139 2 0.256981 15.101 6.73464 1.61433 
284 2 0.286363 14.0148 11.3202 1.65269 
465 2 0.284195 18.1858 9.43928 -0.0707849 
513 2 0.298986 18.9133 10.0267 4.60494 
555 2 0.249966 14.7847 8.58087 6.03915 
680 1 -0.746392 17.8761 10.8369 2.30255 
699 2 0.263038 15.8494 10.7297 4.24436 
723 2 0.281501 17.1571 9.74292 6.26684 
724 2 0.278511 16.3464 13.2761 5.95521 
790 2 0.228347 12.6323 9.81747 6.07041 
814 2 0.257172 18.2348 12.3653 4.55984 
918 2 0.292873 15.852 9.37244 1.41795 
1095 2 0.24679 18.9828 5.98908 2.13937 
1211 2 0.267743 16.8469 8.04181 3.57246 
1220 2 0.253542 19.4841 7.79327 4.81891 
1262 2 0.254758 15.1401 4.91622 20.9144 
1313 1 -0.99032 12.6631 6.46827 2.29833 
1320 1 -0.964643 14.9054 11.2655 6.72291 
99 2 0.255942 23.9702 11.0643 4.9197 
108 2 0.246786 21.1852 6.41136 6.45885 
157 2 0.26298 25.3145 6.62384 7.00771 
340 2 0.248664 23.7167 7.60133 0.664141 
444 2 0.253888 21.0685 11.5602 5.10626 
585 2 0.248055 21.1491 11.6236 20.5753 
611 2 0.265722 19.5049 11.2623 7.42128 
851 2 0.26778 25.383 9.29745 -0.173761 
878 2 0.265789 21.8597 9.28875 5.86429 
883 1 -0.939374 24.2857 8.59338 5.59587 
894 1 -0.923389 19.0141 8.57967 2.26545 
898 1 -0.735987 21.1263 9.44417 3.30887 
907 1 -0.904486 20.2517 11.653 2.6231 
956 2 0.25944 23.0394 6.43704 5.08104 
1148 2 0.267723 23.126 10.4268 1.69113 
1190 2 0.262101 25.7749 9.65141 3.13973 
1323 1 -0.971488 23.4572 8.40078 3.22703 
13 2 0.251098 26.7219 11.2974 5.62239 
20 2 0.263692 31.4747 9.13786 4.43406 
35 2 0.263201 28.5882 8.56252 4.196 
107 2 0.249021 0.75275 12.8374 6.15644 
116 2 0.274749 25.4272 12.4026 2.58784 
132 2 0.235604 30.2593 9.62677 0.158919 
176 2 0.265361 31.1527 10.646 2.10052 
245 2 0.250261 26.3227 7.10403 1.63122 
325 2 0.278806 28.9439 13.3725 4.88954 
363 1 -0.971009 30.7354 11.6725 4.40449 
425 2 0.261212 0.337119 10.5605 6.53875 
496 2 0.272841 28.2241 11.7899 0.997311 
706 2 0.27408 28.2279 11.3326 3.35765 
708 2 0.259782 30.7912 7.3507 2.15922 
733 2 0.251964 28.3898 8.82635 1.95488 
890 1 -0.994108 27.867 8.50745 20.6975 
906 1 -0.948776 26.7565 8.73822 5.9727 
1164 2 0.249076 29.0809 10.3325 6.06344 
1167 2 0.278564 26.2795 6.5307 20.248 
1177 2 0.24359 26.4611 10.8678 0.263784 
119 2 0.232013 4.71423 12.8583 1.78988 
152 2 0.265623 6.16355 13.2936 4.30577 
198 1 -0.980388 4.74419 15.333 2.52829 
236 2 0.251688 2.85558 13.7951 3.80401 
293 2 0.280834 2.76151 19.1246 21.0362 
313 2 0.279029 2.85875 17.6084 6.21121 
326 2 0.268484 2.28105 15.0587 6.70527 
482 2 0.260411 0.499795 16.6438 4.27453 
495 2 0.262949 4.67632 15.445 5.3385 
713 2 0.246293 5.31411 15.4316 20.9757 
718 2 0.269252 2.76654 14.6503 0.963885 
749 1 -0.945033 1.47534 16.947 0.753969 
827 2 0.255418 5.09969 17.5032 4.10694 
1023 2 0.246213 6.88361 19.7925 3.74975 
1101 2 0.278994 2.53791 16.5977 3.18215 
1280 2 0.250593 1.33258 13.5804 19.6832 
1353 1 -0.998931 3.96055 17.218 1.05817 
8 2 0.279676 6.92527 14.4929 1.38603 
74 1 -0.947534 8.57117 13.8691 3.14621 
163 2 0.249993 7.54382 15.99 6.08741 
195 2 0.268569 9.21751 15.309 8.37565 
234 2 0.278146 9.30563 13.0243 0.609907 
246 2 0.289534 9.20686 16.3873 2.98908 
275 2 0.288493 9.00612 13.7685 5.71577 
360 1 -0.931175 10.8424 14.5979 3.93419 
382 2 0.269755 9.07037 18.5445 1.51815 
469 2 0.243094 11.5685 16.4886 7.68174 
637 1 -0.949998 11.5622 12.9373 5.6446 
1030 2 0.274027 9.06219 18.3854 7.52181 
1060 1 -0.944084 6.93521 15.7217 3.65283 
1081 2 0.27635 10.6554 14.4682 1.34908 
1154 2 0.268711 6.45273 17.5075 1.7855 
1267 2 0.245499 10.2936 16.4452 5.65684 
1300 2 0.270293 11.618 17.0267 2.81792 
1 2 0.240687 15.815 15.4622 1.47136 
9 2 0.274942 12.6903 20.3467 6.53677 
80 2 0.237009 13.3556 16.7702 0.487056 
93 2 0.263133 16.5906 17.5769 0.749715 
182 2 0.293465 12.2866 14.3883 20.4608 
209 1 -0.946783 13.2448 19.1157 2.92527 
253 2 0.275245 17.1098 19.3511 4.9759 
316 2 0.271795 18.7407 16.0669 20.9559 
409 2 0.280687 14.4686 16.9375 3.01065 
601 2 0.250626 13.1725 14.2871 2.38979 
759 1 -1.0152 16.9442 17.0369 3.50856 
766 2 0.25519 13.9139 17.9275 5.08994 
823 2 0.272662 15.9422 12.7525 2.52638 
845 2 0.25327 15.9696 16.8161 5.87255 
950 2 0.276197 13.6253 12.077 4.44193 
1080 2 0.266318 18.1003 15.2675 5.32246 
1187 2 0.232764 15.2191 14.6528 4.42544 
1281 2 0.281601 12.7808 15.3957 5.39489 
1347 1 -0.981385 15.7837 19.1537 2.70502 
109 2 0.277879 20.3267 17.1359 7.20156 
150 2 0.272775 21.2776 18.4132 4.10842 
178 2 0.279099 23.3956 16.7896 0.594852 
197 1 -0.980546 24.0457 14.4393 1.20189 
306 2 0.27103 19.4018 16.706 2.60029 
395 2 0.252681 23.7316 18.2766 2.64579 
480 2 0.268412 20.9802 14.9877 0.995733 
519 2 0.27576 22.6362 13.8632 5.08973 
539 2 0.255766 22.7764 12.7674 2.84605 
542 2 0.25759 22.2877 15.8345 2.88885 
727 2 0.265706 20.1904 13.9563 3.50521 
735 2 0.248521 24.6823 15.3095 3.70553 
852 2 0.24932 19.8699 19.7095 6.23897 
913 2 0.23974 22.8932 18.8035 6.01805 
999 2 0.268101 20.301 14.2108 19.378 
1050 1 -0.984215 24.3736 14.6302 6.79365 
1082 2 0.231914 17.8089 14.7102 2.64099 
1188 2 0.265127 25.4021 18.1129 4.03379 
1199 2 0.273295 18.8662 12.9476 0.912602 
1210 2 0.280662 23.1657 16.6137 5.51076 
1286 2 0.266682 26.1854 15.957 1.87093 
1340 1 -0.981261 18.9142 17.5869 5.03096 
1365 1 -0.985663 20.7233 15.7998 5.07637 
122 2 0.257024 25.7507 13.6951 4.71614 
169 2 0.286211 30.6318 17.2143 1.03275 
191 2 0.246326 28.3266 17.1471 1.01463 
205 1 -0.943426 29.4579 19.8457 6.41977 
241 2 0.254401 29.6796 15.5688 3.14494 
305 2 0.260049 29.5687 12.5457 7.44302 
308 2 0.274678 0.421388 13.766 3.72449 
534 2 0.259537 29.772 19.8098 1.02115 
570 2 0.238355 30.5279 14.9781 5.95675 
640 1 -0.947602 31.6067 18.8986 5.63154 
656 1 -0.971154 26.3738 13.6987 0.649773 
756 1 -0.968311 27.6842 13.9215 2.75894 
757 1 -0.948765 27.6354 18.9087 5.01168 
830 2 0.243617 27.5366 16.2716 4.42537 
1066 2 0.273433 28.8526 14.5105 0.467811 
1136 2 0.288794 29.4856 17.245 6.09478 
1253 2 0.27125 27.331 14.4281 6.58798 
1282 2 0.254523 0.224472 14.7382 1.49936 
1304 2 0.273449 29.9221 18.3475 3.72249 
1330 1 -0.977104 30.0067 13.0131 2.39971 
64 1 -1.00197 3.10511 23.8585 3.47283 
192 2 0.229847 3.93875 19.3621 2.60694 
408 2 0.248594 31.395 21.5025 6.11264 
450 2 0.244488 4.6019 23.3805 0.508149 
512 2 0.260725 4.93204 20.0799 5.53822 
622 1 -1.02168 0.770494 23.2017 2.71633 
623 1 -1.00779 4.09964 22.5277 5.4 
717 2 0.247792 2.1812 23.2751 19.98 
769 2 0.239495 2.27789 19.2828 5.02288 
774 2 0.280879 5.16586 22.2132 3.00791 
804 2 0.258948 1.46865 23.0862 5.3182 
825 2 0.260373 5.71027 20.0693 0.76397 
839 2 0.243122 2.65835 21.7873 1.38045 
1021 2 0.262535 2.27003 25.0031 1.31747 
1107 2 0.258833 5.7996 24.491 5.60094 
1145 2 0.252009 31.5278 20.8309 3.5818 
1232 2 0.242145 0.371468 21.3045 0.619104 
1259 2 0.268968 2.37287 21.3609 3.85215 
32 2 0.239111 12.0037 22.2393 4.35657 
217 1 -0.9738 6.59922 22.0724 5.09618 
220 1 -0.977321 10.1495 20.7856 0.742077 
318 2 0.259149 11.3336 18.8467 5.35705 
330 2 0.249342 10.9568 23.1827 6.82185 
361 1 -0.99889 7.63777 20.2702 6.55488 
442 2 0.263399 12.4675 23.7942 0.760539 
517 2 0.263292 8.08038 23.3327 7.01135 
529 2 0.243739 8.31987 18.4177 4.62259 
787 2 0.270385 10.0063 24.601 4.71282 
842 2 0.242546 7.85437 24.0065 3.79916 
886 1 -0.991289 11.8269 18.9034 0.84581 
938 2 0.238746 10.0258 23.0278 2.12638 
1028 2 0.278165 10.6336 19.7963 3.18478 
1108 2 0.268583 7.89178 21.1143 2.07297 
1195 2 0.284104 9.16224 21.5105 4.8114 
1269 2 0.234394 7.38852 23.5236 1.24176 
1332 1 -1.00842 6.48961 22.1275 20.4264 
54 2 0.26968 17.4882 21.6714 6.756 
102 2 0.277623 14.4167 19.5553 0.627717 
146 2 0.272021 18.9777 23.0699 2.30183 
200 1 -0.970409 14.9808 25.4408 6.02027 
233 2 0.267455 17.0752 24.478 1.27125 
290 2 0.258469 15.4316 19.5537 6.90463 
297 2 0.249107 14.2018 21.8929 20.3899 
315 2 0.258307 14.5561 20.7809 4.33932 
320 2 0.233328 15.1131 22.4821 1.72259 
329 2 0.243968 17.3152 20.8605 1.00132 
384 2 0.264134 14.7083 23.8679 3.8311 
479 2 0.237162 17.0809 21.8912 3.78635 
662 1 -0.982079 12.688 24.7919 5.18124 
837 2 0.272082 12.0169 24.7935 2.71404 
944 2 0.276563 12.5486 21.3326 1.85762 
1031 2 0.236786 15.2638 21.6134 8.05745 
296 2 0.281968 21.7472 21.4108 4.61793 
317 2 0.254172 22.9877 24.8473 1.40523 
335 2 0.273245 24.0776 22.639 3.07005 
397 2 0.25628 19.942 20.6561 3.07002 
506 2 0.25734 22.9901 21.8128 6.4622 
567 2 0.258952 19.6004 21.9267 5.50656 
681 1 -0.954303 23.9887 20.3302 4.21006 
704 2 0.267756 18.4434 19.0522 2.65858 
816 2 0.250956 19.311 23.8954 4.85377 
903 1 -0.970068 21.4936 22.8841 2.46192 
927 2 0.225871 16.9713 25.4717 3.59605 
1045 1 -0.963712 22.536 20.6255 2.1829 
1124 2 0.287201 25.647 19.9794 6.18602 
1147 2 0.220687 22.0775 24.1726 4.52379 
1277 2 0.259591 24.2266 24.9255 6.49096 
1339 1 -0.922716 20.7709 23.786 0.263063 
181 2 0.242277 27.0369 23.3544 3.23663 
266 2 0.260125 27.4505 24.8652 5.13142 
312 2 0.268704 25.0815 20.8039 1.68134 
368 1 -1.02538 31.1401 25.2031 1.88428 
400 2 0.244753 30.2841 23.6935 4.33981 
464 2 0.278387 29.1058 20.8078 3.94843 
483 2 0.23172 27.8846 22.0199 1.86046 
518 2 0.260603 27.415 18.9183 2.3297 
524 2 0.244542 25.1341 22.6977 5.33522 
582 2 0.263188 29.2538 23.891 7.24453 
631 1 -0.99912 26.4201 20.7786 3.83203 
722 2 0.245295 26.6667 22.6943 7.55324 
815 2 0.2476 26.9959 21.1974 -0.0141336 
829 2 0.266585 0.940026 18.9321 2.32423 
973 2 0.269671 30.0858 22.7873 1.81683 
1075 2 0.234002 25.2594 23.9827 0.90052 
1206 2 0.268106 28.0723 21.831 5.64944 
1364 1 -1.04607 28.6223 24.831 1.72134 
114 2 0.258116 6.28208 30.6654 6.21749 
224 1 -1.03679 1.27545 29.1205 6.51341 
311 2 0.214515 0.884742 26.729 5.55555 
364 1 -1.02849 5.66082 27.6767 1.80613 
406 2 0.247413 2.83484 28.3008 4.50871 
533 2 0.260098 3.4974 31.1849 20.9222 
590 2 0.294544 1.99205 30.2596 4.28083 
647 1 -1.02558 4.77531 29.0106 20.9605 
648 1 -1.00397 3.79992 29.5474 6.52844 
719 2 0.268767 31.3762 28.7689 3.91714 
793 2 0.239729 0.245874 26.9052 21.0353 
807 2 0.267078 1.48613 30.1861 1.44009 
819 2 0.259647 1.04851 25.5168 3.82057 
838 2 0.252976 5.23839 25.0752 2.65027 
875 2 0.224825 0.771184 27.6443 2.39829 
1087 2 0.233443 3.86887 26.6316 3.54679 
1189 2 0.275224 3.09789 27.6607 1.34137 
1204 2 0.263896 5.59562 27.6021 6.10437 
1234 2 0.245539 5.6261 29.1358 4.10348 
1315 1 -1.01759 2.27546 28.8324 20.4433 
4 2 0.276095 9.91035 31.5714 1.26558 
105 2 0.274336 9.05466 27.7457 4.68364 
128 2 0.265004 6.47883 30.149 1.32712 
218 1 -1.00743 11.4731 26.8149 4.24329 
355 1 -1.0011 8.12547 28.139 2.07405 
416 2 0.263744 8.20412 25.8495 6.59525 
468 2 0.26807 10.8308 26.1098 6.7145 
484 2 0.265276 7.09175 26.6553 3.89885 
561 2 0.271827 9.98623 29.2201 7.46208 
583 2 0.259911 7.57537 25.7583 1.09305 
773 2 0.24505 11.5139 29.1752 5.43436 
946 2 0.254682 9.9209 27.4294 -0.0115737 
955 2 0.242082 7.90899 30.5009 3.28341 
968 2 0.234926 8.70247 29.7345 0.0934184 
983 2 0.246422 8.21652 29.1876 6.06276 
1000 2 0.267957 10.4899 28.9641 2.64789 
1044 1 -1.01087 9.54996 26.1439 2.72307 
1135 2 0.252828 10.0839 25.3623 0.329472 
1231 2 0.23445 13.8697 29.4891 4.26641 
36 2 0.2702 13.0062 29.809 7.56284 
133 2 0.270627 17.3233 26.2611 6.34454 
177 2 0.266849 17.4134 29.6528 0.36912 
248 2 0.271752 12.9963 27.0883 6.46543 
259 2 0.24982 15.4505 28.9356 6.62584 
387 2 0.251936 12.0118 27.2796 1.80531 
486 2 0.267097 17.3001 28.5547 4.40396 
507 2 0.234667 16.6716 26.9253 20.926 
586 2 0.268213 13.463 29.3133 2.08532 
731 2 0.266544 14.1509 26.9759 4.24784 
743 2 0.235934 18.6869 27.616 1.77139 
832 2 0.22706 17.7102 25.7187 9.17125 
933 2 0.258523 15.8372 30.9831 5.18603 
1053 1 -0.980791 12.5667 31.4896 1.07219 
1057 1 -1.00727 18.6825 30.3613 2.61109 
1173 2 0.227347 15.715 27.8078 2.11743 
1174 2 0.231724 14.5069 25.7927 1.90244 
1274 2 0.252882 18.7929 30.6166 5.37998 
1279 2 0.253282 11.658 31.4309 3.55695 
1287 2 0.251409 18.0722 28.6074 7.66384 
1319 1 -0.991881 16.1605 30.2135 2.73238 
324 2 0.225535 23.3928 29.7105 1.71258 
334 2 0.261473 21.725 27.5044 21.0813 
428 2 0.254545 21.9907 26.4764 4.98394 
447 2 0.262811 21.0444 31.1513 3.57015 
478 2 0.225671 19.4208 26.2564 4.49722 
598 2 0.241966 22.1583 26.9631 2.71037 
657 1 -1.01044 22.4157 29.0195 4.14836 
701 2 0.285708 19.37 25.6016 20.4899 
785 2 0.275796 24.8812 28.4132 3.87726 
803 2 0.223748 23.196 29.8084 7.88961 
826 2 0.258933 20.8203 28.9121 1.65101 
863 2 0.22912 24.639 25.4478 3.76106 
868 2 0.272793 20.9356 28.7014 6.26928 
879 2 0.24772 24.1698 0.324773 3.39265 
1038 1 -1.01041 23.5633 27.9306 6.17145 
1112 2 0.243132 20.2218 25.4407 2.12909 
1117 2 0.244005 23.8124 30.7167 5.43322 
1316 1 -1.01794 19.9209 28.6209 3.97674 
26 2 0.239269 27.9208 28.258 4.39182 
222 1 -0.958769 31.3784 31.1357 3.10307 
226 1 -0.82538 29.2854 30.7976 4.50069 
418 2 0.241603 25.8436 29.2396 6.53255 
498 2 0.242162 29.6547 26.3059 3.78296 
602 2 0.274131 28.0256 27.2727 6.82744 
608 2 0.268422 24.5192 27.4086 1.27373 
639 1 -0.821304 31.6199 31.1463 5.66734 
642 1 -0.995187 25.8106 26.8209 5.7202 
697 2 0.271811 29.6703 27.2616 1.45269 
707 2 0.217613 25.7129 30.5385 1.08022 
732 2 0.238222 30.1213 26.0787 6.44394 
779 2 0.267332 26.6698 30.7224 3.81143 
817 2 0.266602 26.717 26.2577 2.60716 
1009 2 0.262579 30.4608 28.7458 5.82918 
1125 2 0.254241 29.5621 29.5269 2.21957 
1139 2 0.274834 31.4465 29.7678 0.447768 
1141 2 0.227155 27.1308 28.7736 1.5858 
1265 2 0.243799 26.551 0.201589 6.22612 
1346 1 -1.01371 27.5884 26.5717 0.148998 
79 2 0.265019 0.065002 1.54779 12.0649 
184 2 0.240346 2.98619 2.40463 7.55135 
257 2 0.231983 3.1737 5.74301 11.7904 
398 2 0.250305 5.94641 1.90365 6.77901 
514 2 0.236771 6.10448 5.71816 12.9913 
549 2 0.269419 5.59634 5.42974 10.4841 
573 2 0.257104 1.52148 3.90071 11.1656 
688 2 0.235713 4.75628 31.3755 8.45476 
748 1 -1.02111 1.11231 3.89214 8.55983 
753 1 -1.0098 4.41606 3.32872 11.2583 
917 2 0.264287 2.1906 31.4659 7.22814 
978 2 0.260798 5.46024 0.907626 11.2504 
992 2 0.222974 2.35168 0.0301647 9.98935 
997 2 0.258738 2.52552 2.05673 9.94964 
1003 2 0.277548 6.06657 2.82771 13.2958 
1014 2 0.262355 5.2848 2.54491 9.02776 
1016 2 0.235419 2.69945 1.71639 12.7414 
1042 1 -1.01015 3.43962 4.56975 9.27297 
1086 2 0.230917 5.47402 5.01186 7.69348 
24 2 0.263062 8.46994 6.57336 6.76551 
34 2 0.270039 12.4477 4.19001 9.35551 
254 2 0.265934 9.68685 2.97128 10.7606 
349 1 -0.771246 10.4486 1.78697 13.0056 
378 1 -1.00116 7.97906 1.40146 12.4352 
410 2 0.291048 11.5819 1.27792 10.4634 
424 2 0.249947 9.78613 5.01715 8.70167 
458 2 0.21741 7.82922 3.67222 8.3546 
488 2 0.309885 13.0194 1.93899 13.5256 
684 1 -0.987221 11.6818 6.66735 8.88007 
980 2 0.25669 8.64424 4.01944 12.9181 
1058 1 -1.0084 6.94855 3.20646 10.9652 
1115 2 0.237907 11.0402 4.77532 6.43733 
1207 2 0.257286 10.6718 5.95784 11.4015 
1214 2 0.245328 7.99993 5.68303 10.6411 
1263 2 0.276619 10.7491 2.18748 7.97346 
118 2 0.278793 14.1411 1.7056 15.4579 
274 2 0.275843 16.5239 2.7851 10.7718 
304 2 0.259777 16.684 0.861199 13.2016 
419 2 0.263547 17.4536 5.27735 9.41917 
500 2 0.28573 19.2561 4.15536 10.9786 
558 2 0.238007 16.0283 7.63884 8.34077 
616 2 0.250196 13.4523 4.90798 14.5017 
683 1 -0.916202 12.7913 0.604294 8.19139 
767 2 0.270497 14.7526 2.29144 8.62108 
824 2 0.280763 13.4111 6.30091 6.6555 
873 2 0.242155 17.9974 2.55572 8.6501 
876 2 0.269135 15.0449 3.01103 12.9889 
901 1 -0.751789 16.9077 4.96585 12.1916 
1054 1 -0.992343 18.2409 2.90328 12.9332 
1158 2 0.285641 14.4843 31.4432 12.59 
1192 2 0.265757 13.718 1.93737 10.7152 
1230 2 0.266022 12.2602 4.19511 11.9004 
1292 2 0.293298 16.2275 4.44159 7.46593 
1356 1 -0.9499 14.7067 4.61614 10.93 
92 2 0.272524 23.344 2.77376 12.9776 
188 2 0.238855 23.1594 6.16542 9.49985 
356 1 -0.976815 23.4974 2.4547 9.26253 
415 2 0.275918 19.7889 1.66405 14.5443 
437 2 0.270004 23.2288 4.33281 7.5432 
672 1 -0.972308 20.7426 3.41923 12.9843 
761 2 0.244506 22.303 5.30947 13.9373 
775 2 0.262541 21.3725 1.88016 10.8933 
780 2 0.250508 18.9029 1.12178 11.094 
821 2 0.249111 20.5181 5.88254 11.6406 
963 2 0.252439 20.4482 5.88481 8.70705 
1073 2 0.250354 22.6912 0.0159871 9.00384 
1083 2 0.271713 25.005 2.15376 11.3075 
1184 2 0.276692 22.9234 7.10877 12.0129 
1275 2 0.290388 20.5624 3.54985 8.77662 
1302 2 0.249961 22.4745 4.21042 10.9021 
112 2 0.230661 0.0950269 6.15353 11.5103 
144 2 0.230475 27.4846 5.54705 9.78985 
370 1 -0.984873 31.5048 5.82648 7.56364 
485 2 0.269078 28.4338 0.763305 8.61634 
508 2 0.261145 27.4119 2.88492 11.3273 
520 2 0.267834 30.3292 3.51235 6.83947 
572 2 0.244372 25.4116 4.20591 9.24864 
614 2 0.249358 25.4604 0.359097 13.2686 
621 1 -0.975059 30.3931 31.0789 12.5126 
653 1 -1.00531 25.8735 1.67678 8.85311 
745 1 -0.991189 28.9949 5.53778 7.6388 
846 2 0.263471 0.472691 3.90698 13.9486 
869 2 0.285252 28.0402 0.441958 13.0846 
923 2 0.250494 31.1504 2.0158 9.42271 
928 2 0.278114 30.5043 4.49963 9.58611 
1113 2 0.226047 25.1425 4.99364 12.0672 
1175 2 0.24487 30.029 3.58432 11.8397 
1180 2 0.259089 28.3505 3.10634 8.84693 
1336 1 -0.97377 30.296 5.93635 13.4725 
1348 1 -0.963423 29.2961 1.03575 10.9859 
91 2 0.261781 5.20441 12.5349 8.92436 
167 2 0.232259 0.571456 9.16898 9.30564 
243 2 0.253935 4.95009 12.8066 14.1148 
295 2 0.265373 1.60536 6.4059 9.27676 
472 2 0.274073 5.96027 9.78084 8.46739 
511 2 0.26584 0.155176 12.0381 8.89229 
553 2 0.241548 29.5915 10.1936 9.04348 
629 1 -0.996263 2.80519 10.264 12.962 
801 2 0.259423 1.22746 7.79851 6.80509 
960 2 0.238115 1.60006 8.40631 11.6934 
977 2 0.215812 3.86003 7.50977 9.43899 
993 2 0.258799 2.84021 10.1581 8.00363 
1046 1 -0.995157 1.62539 11.0063 10.8374 
1096 2 0.273299 4.01585 10.0975 10.5957 
1106 2 0.255056 1.89207 12.9123 12.7487 
1227 2 0.259816 4.08345 7.98071 12.8563 
1311 1 -0.954147 5.31363 10.3075 12.9324 
196 2 0.262865 7.81442 6.15925 14.6713 
202 1 -0.960342 8.45805 9.19142 7.59149 
235 2 0.255882 11.195 8.44126 10.7808 
258 2 0.253904 6.71528 11.5958 11.0476 
279 2 0.279525 10.6937 7.93023 6.96715 
354 1 -1.04806 12.0029 12.809 13.282 
369 1 -0.993592 6.39539 8.31109 14.0872 
389 2 0.264441 10.3527 6.25471 14.2302 
429 2 0.253536 6.19094 8.35571 11.3451 
449 2 0.239667 10.5595 10.1046 8.76195 
603 2 0.256386 12.9803 14.5169 9.03341 
740 2 0.239848 12.5863 7.26796 13.4665 
755 1 -1.00866 9.34202 7.52906 9.29923 
806 2 0.253254 8.30694 9.66895 10.2645 
864 2 0.254141 8.13157 12.0519 8.12784 
924 2 0.261415 8.49752 7.71747 12.3411 
1025 2 0.270931 6.85766 7.27623 8.57467 
1163 2 0.230013 10.3268 11.1885 11.9635 
1294 2 0.216097 12.4454 11.3862 10.3205 
50 2 0.268921 15.0313 12.8906 8.87914 
52 2 0.262052 15.2811 10.2726 9.11084 
57 2 0.251927 17.2686 9.69202 11.2644 
115 2 0.242525 15.5701 11.6084 11.9038 
207 1 -0.967085 17.8102 9.6253 8.76635 
346 2 0.276234 19.8163 13.2518 14.3396 
380 1 -0.953479 17.0764 11.7987 7.81597 
421 2 0.289092 14.2364 5.57904 8.66611 
476 2 0.244717 18.2536 7.17681 7.18489 
497 2 0.265876 17.8651 12.0829 10.1824 
592 2 0.207037 13.8766 9.18067 11.5455 
674 1 -0.999253 15.7022 11.057 14.4682 
679 1 -1.01455 13.1766 6.66163 10.9011 
783 2 0.263225 13.7234 12.6091 11.3598 
880 2 0.277241 15.7238 7.17633 10.8212 
948 2 0.24066 13.3111 8.60034 8.71423 
996 2 0.31098 14.495 5.99531 13.0308 
1006 2 0.271914 12.6107 11.6252 7.79087 
5 2 0.277376 23.5212 14.4367 9.26773 
67 1 -0.982775 24.5862 8.84512 12.6493 
143 2 0.23696 24.1832 11.526 9.83553 
156 2 0.223776 24.946 10.3464 15.2485 
183 2 0.287563 22.0414 10.1626 11.8076 
199 1 -0.977588 21.3238 8.10939 10.0954 
231 2 0.268481 18.17 7.21119 12.4864 
288 2 0.265975 22.9831 7.83849 7.96735 
291 2 0.269055 25.577 7.38001 10.0329 
366 1 -0.935432 23.6708 8.97803 10.3211 
702 2 0.265739 19.6369 11.9002 12.1839 
711 2 0.256153 21.7317 11.5714 14.1261 
728 2 0.273596 24.8682 9.59304 7.84901 
734 2 0.275368 22.0161 10.3819 8.82436 
739 2 0.236555 22.5934 12.443 7.40117 
833 2 0.27858 18.7561 7.6282 10.12 
860 2 0.249681 24.9135 6.96065 14.5361 
1008 2 0.266652 20.076 8.83618 7.75143 
1013 2 0.262567 20.3385 8.91339 12.4169 
1052 1 -0.960331 19.8178 10.1253 10.1347 
111 2 0.273594 26.7808 9.5098 13.7059 
189 2 0.262462 29.9677 8.04279 6.90574 
227 1 -1.00128 27.5801 12.9672 8.96159 
252 2 0.260018 27.9559 8.62265 10.9693 
314 2 0.263467 26.014 10.1913 10.9713 
401 2 0.246358 27.1636 10.4187 8.4429 
404 2 0.276366 25.4014 12.5182 7.65953 
453 2 0.255106 29.1006 10.4967 13.3437 
645 1 -0.972966 30.8133 11.2699 11.0713 
670 1 -1.01523 29.8398 13.3905 10.0569 
771 2 0.270226 28.5791 5.92487 11.5971 
899 1 -0.967943 28.6199 7.81041 13.5199 
967 2 0.262388 30.3264 8.77887 11.6883 
979 2 0.277826 28.2207 11.7463 11.195 
1017 2 0.247725 30.1783 7.17871 9.41963 
1047 1 -0.968846 26.4232 7.12911 12.4969 
1128 2 0.279252 0.353388 10.7172 13.2509 
1219 2 0.276111 27.6216 7.72486 8.07417 
19 2 0.280471 5.96589 14.2869 7.40386 
73 1 -0.926889 5.17036 14.9898 10.0485 
145 2 0.277076 3.88188 17.1142 10.5852 
250 2 0.236542 2.5071 12.6155 8.85058 
331 2 0.272963 6.82829 13.6815 12.0041 
362 1 -0.950348 0.380292 16.8252 6.92779 
435 2 0.258693 1.33903 16.0567 12.0242 
632 1 -0.947638 2.11519 17.2554 8.67277 
703 2 0.256804 31.6521 14.6827 8.50911 
716 2 0.284451 2.66402 14.8396 9.67598 
941 2 0.278351 3.88066 12.4649 11.5209 
1079 2 0.255422 4.22744 15.0638 12.533 
1100 2 0.255946 1.93366 18.5531 11.0427 
1243 2 0.271938 0.489245 13.5098 11.2339 
1245 2 0.232147 1.4595 20.7869 9.97073 
1266 2 0.26085 31.5812 16.5356 9.62562 
1312 1 -0.938798 4.3215 16.2663 8.05296 
76 1 -0.974134 11.3161 13.7306 11.0401 
203 1 -0.916788 7.42871 14.1173 9.5803 
280 2 0.242045 5.99122 18.0984 6.75236 
282 2 0.290095 13.5923 17.3504 10.1421 
336 2 0.269629 6.69113 16.809 8.99211 
463 2 0.244973 13.7809 17.6048 12.455 
466 2 0.254455 9.30622 16.883 12.9166 
552 2 0.267567 6.86965 15.4175 14.384 
565 2 0.269983 9.37575 13.4917 12.9815 
577 2 0.256981 6.9033 16.3588 11.5949 
721 2 0.27928 9.35351 12.5623 10.0718 
922 2 0.267618 11.3333 16.3029 10.3628 
930 2 0.262741 11.6838 15.514 12.9803 
1064 1 -0.974643 9.17328 15.0839 11.0859 
1161 2 0.273905 10.9992 13.5375 8.09288 
1216 2 0.266571 11.267 18.7884 11.7851 
1283 2 0.234805 9.24886 17.8181 9.96951 
94 2 0.259656 15.9828 15.6546 13.3048 
101 2 0.261898 16.7037 17.594 14.9693 
120 2 0.225358 17.9358 14.5017 8.32301 
147 2 0.254187 17.772 17.3942 7.45119 
285 2 0.269384 17.0719 12.8662 13.0646 
470 2 0.275006 13.6726 14.7529 11.9535 
638 1 -0.951448 13.8064 13.5001 6.57744 
658 1 -0.974136 15.6879 18.0612 8.91165 
698 2 0.243431 15.8903 14.6545 10.5249 
796 2 0.275505 18.3882 14.9149 11.2732 
799 2 0.281548 18.655 15.5231 13.5528 
877 2 0.250853 15.1701 15.6282 7.76801 
1062 1 -0.943046 18.0031 17.7339 12.5712 
1159 2 0.277643 13.4382 17.6268 7.53338 
1186 2 0.295611 18.1302 17.1653 10.0643 
1191 2 0.279856 13.7088 18.493 14.2969 
1341 1 -0.957742 15.969 17.1029 11.2086 
25 2 0.23791 24.3513 11.537 12.9677 
263 2 0.263354 22.4827 12.8923 11.2215 
277 2 0.286291 22.8684 15.8906 11.8268 
379 1 -0.950568 22.7125 13.8376 13.601 
477 2 0.253549 19.8575 13.8373 6.6939 
481 2 0.277796 20.764 15.4651 9.68173 
664 1 -0.968778 23.8241 15.763 14.7464 
689 2 0.246357 22.5865 18.4203 11.0711 
848 2 0.23972 23.1167 17.0768 8.57023 
892 1 -0.910091 20.6897 14.4631 12.2144 
896 1 -1.00844 21.9354 15.1709 7.24929 
1182 2 0.25738 25.5341 16.8792 6.70646 
1200 2 0.278051 25.0136 14.5369 12.7454 
1288 2 0.245628 20.5215 12.8231 9.60485 
1324 1 -0.937825 20.2856 16.9301 11.8742 
16 2 0.245402 28.0757 14.2436 13.1955 
27 2 0.266174 27.7123 14.8822 10.7468 
43 2 0.248761 25.7495 13.3099 10.8421 
126 2 0.23968 28.39 17.6205 10.415 
165 2 0.253402 27.0836 12.4738 14.0891 
193 2 0.266567 28.9056 15.3169 8.47784 
341 2 0.269293 30.1577 18.1912 8.25674 
371 1 -1.01312 27.1194 19.3078 12.0755 
473 2 0.238499 27.2129 17.4408 7.81078 
499 2 0.260806 30.1762 12.8918 13.1674 
536 2 0.260119 27.4312 19.9849 8.08719 
543 2 0.245709 30.1584 15.6549 11.6126 
593 2 0.237612 31.1812 15.1524 14.2786 
612 2 0.231765 25.2628 16.5038 10.4685 
650 1 -1.00852 26.0426 14.97 8.68077 
669 1 -1.00025 30.9365 17.6628 13.3123 
959 2 0.270976 28.6386 20.25 10.272 
1127 2 0.285513 28.4733 17.3822 13.3296 
1197 2 0.263677 25.4823 18.5408 10.2462 
1276 2 0.256877 26.6439 16.7177 12.7889 
60 2 0.256026 2.59538 24.7849 12.3393 
85 2 0.276194 5.62634 21.8336 7.48781 
110 2 0.246303 3.98841 19.0525 8.4429 
166 2 0.229046 2.60188 21.2058 7.15722 
283 2 0.278132 0.708333 19.2936 8.00993 
446 2 0.271546 1.54822 22.0128 12.3033 
595 2 0.265836 0.57302 22.7772 8.68054 